 Entering Gaussian System, Link 0=g16
 Input=resp.com
 Output=resp.log
 Initial command:
 /gpfsnyu/packages/b.01/g16/l1.exe "/tmp/Gau-137569.inp" -scrdir="/tmp/"
 Entering Link 1 = /gpfsnyu/packages/b.01/g16/l1.exe PID=    137570.
  
 Copyright (c) 1988-2017, Gaussian, Inc.  All Rights Reserved.
  
 This is part of the Gaussian(R) 16 program.  It is based on
 the Gaussian(R) 09 system (copyright 2009, Gaussian, Inc.),
 the Gaussian(R) 03 system (copyright 2003, Gaussian, Inc.),
 the Gaussian(R) 98 system (copyright 1998, Gaussian, Inc.),
 the Gaussian(R) 94 system (copyright 1995, Gaussian, Inc.),
 the Gaussian 92(TM) system (copyright 1992, Gaussian, Inc.),
 the Gaussian 90(TM) system (copyright 1990, Gaussian, Inc.),
 the Gaussian 88(TM) system (copyright 1988, Gaussian, Inc.),
 the Gaussian 86(TM) system (copyright 1986, Carnegie Mellon
 University), and the Gaussian 82(TM) system (copyright 1983,
 Carnegie Mellon University). Gaussian is a federally registered
 trademark of Gaussian, Inc.
  
 This software contains proprietary and confidential information,
 including trade secrets, belonging to Gaussian, Inc.
  
 This software is provided under written license and may be
 used, copied, transmitted, or stored only in accord with that
 written license.
  
 The following legend is applicable only to US Government
 contracts under FAR:
  
                    RESTRICTED RIGHTS LEGEND
  
 Use, reproduction and disclosure by the US Government is
 subject to restrictions as set forth in subparagraphs (a)
 and (c) of the Commercial Computer Software - Restricted
 Rights clause in FAR 52.227-19.
  
 Gaussian, Inc.
 340 Quinnipiac St., Bldg. 40, Wallingford CT 06492
  
  
 ---------------------------------------------------------------
 Warning -- This program may not be used in any manner that
 competes with the business of Gaussian, Inc. or will provide
 assistance to any competitor of Gaussian, Inc.  The licensee
 of this program is prohibited from giving any competitor of
 Gaussian, Inc. access to this program.  By using this program,
 the user acknowledges that Gaussian, Inc. is engaged in the
 business of creating and licensing software in the field of
 computational chemistry and represents and warrants to the
 licensee that it is not a competitor of Gaussian, Inc. and that
 it will not use this program in any manner prohibited above.
 ---------------------------------------------------------------
  

 Cite this work as:
 Gaussian 16, Revision B.01,
 M. J. Frisch, G. W. Trucks, H. B. Schlegel, G. E. Scuseria, 
 M. A. Robb, J. R. Cheeseman, G. Scalmani, V. Barone, 
 G. A. Petersson, H. Nakatsuji, X. Li, M. Caricato, A. V. Marenich, 
 J. Bloino, B. G. Janesko, R. Gomperts, B. Mennucci, H. P. Hratchian, 
 J. V. Ortiz, A. F. Izmaylov, J. L. Sonnenberg, D. Williams-Young, 
 F. Ding, F. Lipparini, F. Egidi, J. Goings, B. Peng, A. Petrone, 
 T. Henderson, D. Ranasinghe, V. G. Zakrzewski, J. Gao, N. Rega, 
 G. Zheng, W. Liang, M. Hada, M. Ehara, K. Toyota, R. Fukuda, 
 J. Hasegawa, M. Ishida, T. Nakajima, Y. Honda, O. Kitao, H. Nakai, 
 T. Vreven, K. Throssell, J. A. Montgomery, Jr., J. E. Peralta, 
 F. Ogliaro, M. J. Bearpark, J. J. Heyd, E. N. Brothers, K. N. Kudin, 
 V. N. Staroverov, T. A. Keith, R. Kobayashi, J. Normand, 
 K. Raghavachari, A. P. Rendell, J. C. Burant, S. S. Iyengar, 
 J. Tomasi, M. Cossi, J. M. Millam, M. Klene, C. Adamo, R. Cammi, 
 J. W. Ochterski, R. L. Martin, K. Morokuma, O. Farkas, 
 J. B. Foresman, and D. J. Fox, Gaussian, Inc., Wallingford CT, 2016.
 
 ******************************************
 Gaussian 16:  ES64L-G16RevB.01 20-Dec-2017
                27-May-2024 
 ******************************************
 %chk=resp.chk
 %mem=100GB
 %nprocshared=40
 Will use up to   40 processors via shared memory.
 ----------------------------------------------------------
 # wb97xd/6-31+g iop(6/33=2) iop(6/42=6) pop=mk iop(6/50=1)
 ----------------------------------------------------------
 1/38=1,172=1/1;
 2/12=2,17=6,18=5,40=1/2;
 3/5=1,6=6,7=10,11=2,25=1,30=1,74=-58/1,2,3;
 4//1;
 5/5=2,38=5/2;
 6/7=2,8=2,9=2,10=2,15=8,20=1,28=1,33=2,42=6,50=1/1,2;
 99/5=1,9=1/99;
 -----
 DBP11
 -----
 Symbolic Z-matrix:
 Charge =  0 Multiplicity = 1
 C                     23.18022   31.17979   43.94215 
 C                     24.37026   31.00652   43.3527 
 C                     24.4597   30.13264   42.28294 
 C                     23.39286   29.30906   41.94414 
 C                     23.64883   28.13155   41.20895 
 C                     22.81573   27.7766   40.14914 
 C                     21.71893   28.60881   39.77137 
 C                     20.91309   28.29837   38.71145 
 C                     21.15824   27.16576   37.99438 
 C                     22.24169   26.3552   38.33258 
 C                     23.11591   26.60781   39.38991 
 C                     24.21062   25.77174   39.74369 
 C                     24.72102   24.79355   38.83122 
 C                     23.96106   23.7488   38.36073 
 C                     24.62157   22.79662   37.54808 
 C                     25.9228   23.07044   37.11171 
 C                     26.57194   24.15425   37.46989 
 C                     26.01196   25.00917   38.41981 
 C                     24.96124   26.1021   40.86892 
 C                     25.94866   25.39471   41.5332 
 C                     26.64819   24.14642   41.34262 
 C                     27.61216   23.75675   42.22501 
 C                     28.03981   24.55187   43.32321 
 C                     28.97849   24.20421   44.28088 
 C                     29.70332   23.01144   44.15286 
 C                     30.71609   22.65902   45.10771 
 C                     30.93001   23.47279   46.25961 
 C                     31.75578   23.52322   47.35465 
 C                     32.6957   22.54475   47.85614 
 C                     32.7989   21.31318   47.26027 
 C                     34.07325   20.93533   46.66839 
 C                     34.18875   19.81539   45.83689 
 C                     33.04222   19.03337   45.65057 
 C                     31.83244   19.39021   46.25287 
 C                     31.7054   20.45384   47.05232 
 C                     33.50649   22.89828   48.96191 
 C                     34.34914   21.94675   49.55623 
 C                     35.06892   22.31159   50.68091 
 C                     35.03125   23.60552   51.15808 
 C                     34.21614   24.54993   50.62626 
 C                     33.4258   24.22398   49.5087 
 C                     32.40922   25.11533   49.05582 
 C                     32.20497   26.41218   49.65404 
 C                     33.02596   27.55801   49.40985 
 C                     32.57558   28.87662   49.69751 
 C                     31.45375   28.99159   50.5074 
 C                     30.71852   27.84967   50.87431 
 C                     31.05073   26.55772   50.38691 
 C                     31.55332   24.75267   47.98897 
 C                     30.64509   25.4736   47.29967 
 C                     30.14552   26.80048   47.35629 
 C                     29.12034   27.20491   46.4586 
 C                     28.67844   26.34281   45.47125 
 C                     27.60132   26.61604   44.6023 
 C                     26.80738   27.7597   44.80248 
 C                     25.70659   27.99281   43.90382 
 C                     25.54623   27.202    42.72384 
 C                     24.71151   27.26027   41.57268 
 C                     26.29876   26.08656   42.69082 
 C                     27.27867   25.72906   43.56537 
 C                     29.2738   25.0779   45.30927 
 C                     30.26925   24.66016   46.25563 
 C                     22.20006   29.5016   42.59541 
 C                     21.99592   30.51082   43.57336 
 H                     22.97041   31.80052   44.80928 
 H                     25.20581   31.50669   43.83625 
 H                     25.3843   30.13649   41.71154 
 H                     21.274    29.42931   40.32927 
 H                     20.09475   28.96849   38.45937 
 H                     20.69458   26.84039   37.06566 
 H                     22.30776   25.4761   37.69604 
 H                     22.97802   23.47878   38.73747 
 H                     24.14141   21.89093   37.18608 
 H                     26.38105   22.35088   36.43801 
 H                     27.55932   24.40522   37.08955 
 H                     26.60502   25.807    38.85873 
 H                     26.39688   23.47149   40.52866 
 H                     28.04949   22.79129   41.98518 
 H                     29.48809   22.36595   43.3051 
 H                     31.33657   21.80288   44.85669 
 H                     34.95446   21.56166   46.78508 
 H                     35.11293   19.73116   45.27137 
 H                     33.09322   18.2427   44.90579 
 H                     30.94385   18.7774   46.12217 
 H                     30.75605   20.71996   47.50954 
 H                     34.32443   20.91587   49.21449 
 H                     35.70356   21.5571   51.13911 
 H                     35.68333   23.87153   51.98601 
 H                     34.00889   25.49841   51.11686 
 H                     33.8657   27.44248   48.72829 
 H                     33.0379   29.78725   49.32592 
 H                     31.06013   29.98169   50.72218 
 H                     29.81277   27.98431   51.45973 
 H                     30.31555   25.77596   50.55901 
 H                     30.42765   27.4655   48.16862 
 H                     28.76815   28.2302   46.5487 
 H                     26.90607   28.38818   45.6844 
 H                     24.87194   28.65689   44.11321 
 H                     21.3933   28.79338   42.42742 
 H                     21.11873   30.62968   44.20315 
 
 Stoichiometry    C64H36
 Framework group  C1[X(C64H36)]
 Deg. of freedom   294
 Full point group                 C1      NOp   1
 Largest Abelian subgroup         C1      NOp   1
 Largest concise Abelian subgroup C1      NOp   1
                         Standard orientation:                         
 ---------------------------------------------------------------------
 Center     Atomic      Atomic             Coordinates (Angstroms)
 Number     Number       Type             X           Y           Z
 ---------------------------------------------------------------------
      1          6           0        5.421044    5.437406   -0.388833
      2          6           0        4.914461    4.773275    0.658057
      3          6           0        5.325267    3.469967    0.878681
      4          6           0        6.094535    2.796075   -0.062228
      5          6           0        6.090088    1.384505   -0.060046
      6          6           0        7.284579    0.683493   -0.218295
      7          6           0        8.526221    1.375740   -0.350126
      8          6           0        9.712806    0.706945   -0.468079
      9          6           0        9.715768   -0.655789   -0.461262
     10          6           0        8.515046   -1.348245   -0.306233
     11          6           0        7.266614   -0.741218   -0.168640
     12          6           0        6.041136   -1.448837   -0.026960
     13          6           0        6.022636   -2.831993    0.342495
     14          6           0        6.602634   -3.813759   -0.425713
     15          6           0        6.418712   -5.149834    0.003692
     16          6           0        5.847845   -5.380915    1.260393
     17          6           0        5.430174   -4.405464    2.033945
     18          6           0        5.427821   -3.096758    1.550123
     19          6           0        4.856311   -0.719500    0.027398
     20          6           0        3.537388   -1.138588   -0.011178
     21          6           0        2.843058   -2.403863   -0.040740
     22          6           0        1.479965   -2.439889   -0.059740
     23          6           0        0.662189   -1.279488    0.016856
     24          6           0       -0.721300   -1.236673   -0.040079
     25          6           0       -1.460261   -2.427483   -0.059650
     26          6           0       -2.895877   -2.403297   -0.067044
     27          6           0       -3.591778   -1.161257   -0.155951
     28          6           0       -4.882340   -0.694563   -0.170612
     29          6           0       -6.130731   -1.416288   -0.284526
     30          6           0       -6.131351   -2.773014   -0.488853
     31          6           0       -6.748956   -3.624074    0.516795
     32          6           0       -6.575653   -5.012887    0.504442
     33          6           0       -5.838606   -5.558331   -0.553886
     34          6           0       -5.279185   -4.730857   -1.531640
     35          6           0       -5.437800   -3.403688   -1.537048
     36          6           0       -7.339727   -0.688501   -0.167316
     37          6           0       -8.572607   -1.321969   -0.385039
     38          6           0       -9.726263   -0.558672   -0.334495
     39          6           0       -9.678706    0.776446    0.009841
     40          6           0       -8.508100    1.431703    0.208541
     41          6           0       -7.298874    0.717125    0.125151
     42          6           0       -6.050061    1.405204    0.117834
     43          6           0       -5.962256    2.835603    0.284087
     44          6           0       -6.092687    3.517726    1.534803
     45          6           0       -5.621110    4.847980    1.714703
     46          6           0       -5.322123    5.566414    0.564875
     47          6           0       -5.331945    4.936342   -0.692934
     48          6           0       -5.582008    3.545101   -0.830620
     49          6           0       -4.836727    0.698150   -0.055804
     50          6           0       -3.554357    1.101360    0.056889
     51          6           0       -2.894650    2.326659    0.334054
     52          6           0       -1.474180    2.377903    0.327063
     53          6           0       -0.735918    1.222045    0.147337
     54          6           0        0.669030    1.188108    0.025285
     55          6           0        1.397411    2.387929   -0.065605
     56          6           0        2.828306    2.309226   -0.207033
     57          6           0        3.510335    1.062146   -0.055133
     58          6           0        4.871870    0.658415    0.037242
     59          6           0        2.709459   -0.019504   -0.070221
     60          6           0        1.348400   -0.035626   -0.058402
     61          6           0       -1.379042   -0.023623    0.023236
     62          6           0       -2.813567   -0.055264   -0.023151
     63          6           0        6.567643    3.509035   -1.135474
     64          6           0        6.333284    4.897735   -1.317634
     65          1           0        5.163302    6.445211   -0.703698
     66          1           0        4.132142    5.294153    1.204690
     67          1           0        5.041384    3.010264    1.821799
     68          1           0        8.689287    2.430603   -0.557728
     69          1           0       10.632398    1.280021   -0.558756
     70          1           0       10.569155   -1.329467   -0.425967
     71          1           0        8.658037   -2.425592   -0.341486
     72          1           0        6.986920   -3.667296   -1.431733
     73          1           0        6.764350   -6.008787   -0.566058
     74          1           0        5.776908   -6.414413    1.589763
     75          1           0        5.040266   -4.570475    3.035592
     76          1           0        4.923815   -2.307727    2.101765
     77          1           0        3.380430   -3.347022   -0.094692
     78          1           0        1.077190   -3.448276   -0.102387
     79          1           0       -0.918919   -3.370149   -0.056203
     80          1           0       -3.393635   -3.358948    0.074206
     81          1           0       -7.291609   -3.197608    1.357086
     82          1           0       -6.885705   -5.542917    1.401074
     83          1           0       -5.591430   -6.615734   -0.496891
     84          1           0       -4.718638   -5.152042   -2.362672
     85          1           0       -4.992293   -2.773991   -2.302645
     86          1           0       -8.596652   -2.355859   -0.717607
     87          1           0      -10.671456   -1.061819   -0.522746
     88          1           0      -10.615639    1.314442    0.128817
     89          1           0       -8.437376    2.515873    0.261738
     90          1           0       -6.274842    2.916044    2.422404
     91          1           0       -5.473376    5.331269    2.676832
     92          1           0       -4.927766    6.574485    0.662970
     93          1           0       -5.035064    5.515527   -1.563353
     94          1           0       -5.371996    3.113752   -1.805859
     95          1           0       -3.455442    3.255216    0.404996
     96          1           0       -1.018791    3.342873    0.538808
     97          1           0        0.912349    3.354982   -0.175237
     98          1           0        3.456394    3.121075   -0.564663
     99          1           0        7.069769    2.974229   -1.937038
    100          1           0        6.576788    5.481837   -2.200674
 ---------------------------------------------------------------------
 Rotational constants (GHZ):           0.0703587           0.0189843           0.0153069
 Standard basis: 6-31+G (6D, 7F)
 There are   904 symmetry adapted cartesian basis functions of A   symmetry.
 There are   904 symmetry adapted basis functions of A   symmetry.
   904 basis functions,  1808 primitive gaussians,   904 cartesian basis functions
   210 alpha electrons      210 beta electrons
       nuclear repulsion energy      8151.8167267874 Hartrees.
 NAtoms=  100 NActive=  100 NUniq=  100 SFac= 1.00D+00 NAtFMM=   60 NAOKFM=T Big=T
 Integral buffers will be    131072 words long.
 Raffenetti 2 integral format.
 Two-electron integral symmetry is turned on.
 Nuclear repulsion after empirical dispersion term =     8151.7140134154 Hartrees.
 One-electron integrals computed using PRISM.
 NBasis=   904 RedAO= T EigKep=  1.15D-06  NBF=   904
 NBsUse=   862 1.00D-06 EigRej=  8.06D-07 NBFU=   862
 ExpMin= 4.38D-02 ExpMax= 3.05D+03 ExpMxC= 4.57D+02 IAcc=3 IRadAn=         5 AccDes= 0.00D+00
 Harris functional with IExCor= 4639 and IRadAn=       5 diagonalized for initial guess.
 HarFok:  IExCor= 4639 AccDes= 0.00D+00 IRadAn=         5 IDoV= 1 UseB2=F ITyADJ=14
 ICtDFT=  3500011 ScaDFX=  1.000000  1.000000  1.000000  1.000000
 FoFCou: FMM=F IPFlag=           0 FMFlag=      100000 FMFlg1=        2001
         NFxFlg=           0 DoJE=T BraDBF=F KetDBF=T FulRan=T
         wScrn=  0.000000 ICntrl=       500 IOpCl=  0 I1Cent=   200000004 NGrid=           0
         NMat0=    1 NMatS0=      1 NMatT0=    0 NMatD0=    1 NMtDS0=    0 NMtDT0=    0
 Petite list used in FoFCou.
 Requested convergence on RMS density matrix=1.00D-08 within 128 cycles.
 Requested convergence on MAX density matrix=1.00D-06.
 Requested convergence on             energy=1.00D-06.
 No special actions if energy rises.
 SCF Done:  E(RwB97XD) =  -2459.09959825     A.U. after   18 cycles
            NFock= 18  Conv=0.94D-08     -V/T= 2.0040
 SCF density gives NOpUse=  1 NOpAll=  1.

 **********************************************************************

            Population analysis using the SCF Density.

 **********************************************************************

 Orbital symmetries:
 BldTbl:  Degeneracy threshold= 1.00D-02
       Occupied  (A) (A) (A) (A) (A) (A) (A) (A) (A) (A) (A) (A)
                 (A) (A) (A) (A) (A) (A) (A) (A) (A) (A) (A) (A)
                 (A) (A) (A) (A) (A) (A) (A) (A) (A) (A) (A) (A)
                 (A) (A) (A) (A) (A) (A) (A) (A) (A) (A) (A) (A)
                 (A) (A) (A) (A) (A) (A) (A) (A) (A) (A) (A) (A)
                 (A) (A) (A) (A) (A) (A) (A) (A) (A) (A) (A) (A)
                 (A) (A) (A) (A) (A) (A) (A) (A) (A) (A) (A) (A)
                 (A) (A) (A) (A) (A) (A) (A) (A) (A) (A) (A) (A)
                 (A) (A) (A) (A) (A) (A) (A) (A) (A) (A) (A) (A)
                 (A) (A) (A) (A) (A) (A) (A) (A) (A) (A) (A) (A)
                 (A) (A) (A) (A) (A) (A) (A) (A) (A) (A) (A) (A)
                 (A) (A) (A) (A) (A) (A) (A) (A) (A) (A) (A) (A)
                 (A) (A) (A) (A) (A) (A) (A) (A) (A) (A) (A) (A)
                 (A) (A) (A) (A) (A) (A) (A) (A) (A) (A) (A) (A)
                 (A) (A) (A) (A) (A) (A) (A) (A) (A) (A) (A) (A)
                 (A) (A) (A) (A) (A) (A) (A) (A) (A) (A) (A) (A)
                 (A) (A) (A) (A) (A) (A) (A) (A) (A) (A) (A) (A)
                 (A) (A) (A) (A) (A) (A)
       Virtual   (A) (A) (A) (A) (A) (A) (A) (A) (A) (A) (A) (A)
                 (A) (A) (A) (A) (A) (A) (A) (A) (A) (A) (A) (A)
                 (A) (A) (A) (A) (A) (A) (A) (A) (A) (A) (A) (A)
                 (A) (A) (A) (A) (A) (A) (A) (A) (A) (A) (A) (A)
                 (A) (A) (A) (A) (A) (A) (A) (A) (A) (A) (A) (A)
                 (A) (A) (A) (A) (A) (A) (A) (A) (A) (A) (A) (A)
                 (A) (A) (A) (A) (A) (A) (A) (A) (A) (A) (A) (A)
                 (A) (A) (A) (A) (A) (A) (A) (A) (A) (A) (A) (A)
                 (A) (A) (A) (A) (A) (A) (A) (A) (A) (A) (A) (A)
                 (A) (A) (A) (A) (A) (A) (A) (A) (A) (A) (A) (A)
                 (A) (A) (A) (A) (A) (A) (A) (A) (A) (A) (A) (A)
                 (A) (A) (A) (A) (A) (A) (A) (A) (A) (A) (A) (A)
                 (A) (A) (A) (A) (A) (A) (A) (A) (A) (A) (A) (A)
                 (A) (A) (A) (A) (A) (A) (A) (A) (A) (A) (A) (A)
                 (A) (A) (A) (A) (A) (A) (A) (A) (A) (A) (A) (A)
                 (A) (A) (A) (A) (A) (A) (A) (A) (A) (A) (A) (A)
                 (A) (A) (A) (A) (A) (A) (A) (A) (A) (A) (A) (A)
                 (A) (A) (A) (A) (A) (A) (A) (A) (A) (A) (A) (A)
                 (A) (A) (A) (A) (A) (A) (A) (A) (A) (A) (A) (A)
                 (A) (A) (A) (A) (A) (A) (A) (A) (A) (A) (A) (A)
                 (A) (A) (A) (A) (A) (A) (A) (A) (A) (A) (A) (A)
                 (A) (A) (A) (A) (A) (A) (A) (A) (A) (A) (A) (A)
                 (A) (A) (A) (A) (A) (A) (A) (A) (A) (A) (A) (A)
                 (A) (A) (A) (A) (A) (A) (A) (A) (A) (A) (A) (A)
                 (A) (A) (A) (A) (A) (A) (A) (A) (A) (A) (A) (A)
                 (A) (A) (A) (A) (A) (A) (A) (A) (A) (A) (A) (A)
                 (A) (A) (A) (A) (A) (A) (A) (A) (A) (A) (A) (A)
                 (A) (A) (A) (A) (A) (A) (A) (A) (A) (A) (A) (A)
                 (A) (A) (A) (A) (A) (A) (A) (A) (A) (A) (A) (A)
                 (A) (A) (A) (A) (A) (A) (A) (A) (A) (A) (A) (A)
                 (A) (A) (A) (A) (A) (A) (A) (A) (A) (A) (A) (A)
                 (A) (A) (A) (A) (A) (A) (A) (A) (A) (A) (A) (A)
                 (A) (A) (A) (A) (A) (A) (A) (A) (A) (A) (A) (A)
                 (A) (A) (A) (A) (A) (A) (A) (A) (A) (A) (A) (A)
                 (A) (A) (A) (A) (A) (A) (A) (A) (A) (A) (A) (A)
                 (A) (A) (A) (A) (A) (A) (A) (A) (A) (A) (A) (A)
                 (A) (A) (A) (A) (A) (A) (A) (A) (A) (A) (A) (A)
                 (A) (A) (A) (A) (A) (A) (A) (A) (A) (A) (A) (A)
                 (A) (A) (A) (A) (A) (A) (A) (A) (A) (A) (A) (A)
                 (A) (A) (A) (A) (A) (A) (A) (A) (A) (A) (A) (A)
                 (A) (A) (A) (A) (A) (A) (A) (A) (A) (A) (A) (A)
                 (A) (A) (A) (A) (A) (A) (A) (A) (A) (A) (A) (A)
                 (A) (A) (A) (A) (A) (A) (A) (A) (A) (A) (A) (A)
                 (A) (A) (A) (A) (A) (A) (A) (A) (A) (A) (A) (A)
                 (A) (A) (A) (A) (A) (A) (A) (A) (A) (A) (A) (A)
                 (A) (A) (A) (A) (A) (A) (A) (A) (A) (A) (A) (A)
                 (A) (A) (A) (A) (A) (A) (A) (A) (A) (A) (A) (A)
                 (A) (A) (A) (A) (A) (A) (A) (A) (A) (A) (A) (A)
                 (A) (A) (A) (A) (A) (A) (A) (A) (A) (A) (A) (A)
                 (A) (A) (A) (A) (A) (A) (A) (A) (A) (A) (A) (A)
                 (A) (A) (A) (A) (A) (A) (A) (A) (A) (A) (A) (A)
                 (A) (A) (A) (A) (A) (A) (A) (A) (A) (A) (A) (A)
                 (A) (A) (A) (A) (A) (A) (A) (A) (A) (A) (A) (A)
                 (A) (A) (A) (A) (A) (A) (A) (A) (A) (A) (A) (A)
                 (A) (A) (A) (A)
 The electronic state is 1-A.
 Alpha  occ. eigenvalues --  -10.31879 -10.31833 -10.31751 -10.31673 -10.31616
 Alpha  occ. eigenvalues --  -10.31578 -10.31577 -10.31529 -10.31516 -10.31493
 Alpha  occ. eigenvalues --  -10.31484 -10.31464 -10.31396 -10.31393 -10.31378
 Alpha  occ. eigenvalues --  -10.31324 -10.31235 -10.31208 -10.31199 -10.31153
 Alpha  occ. eigenvalues --  -10.31121 -10.31110 -10.31109 -10.31088 -10.31044
 Alpha  occ. eigenvalues --  -10.31035 -10.31034 -10.31032 -10.31027 -10.30986
 Alpha  occ. eigenvalues --  -10.30983 -10.30948 -10.30857 -10.30834 -10.30831
 Alpha  occ. eigenvalues --  -10.30789 -10.30765 -10.30760 -10.30659 -10.30577
 Alpha  occ. eigenvalues --  -10.30504 -10.30460 -10.30275 -10.30261 -10.30216
 Alpha  occ. eigenvalues --  -10.30185 -10.30144 -10.30133 -10.30129 -10.30124
 Alpha  occ. eigenvalues --  -10.30047 -10.30012 -10.30000 -10.29998 -10.29996
 Alpha  occ. eigenvalues --  -10.29943 -10.29929 -10.29911 -10.29845 -10.29818
 Alpha  occ. eigenvalues --  -10.29712 -10.29697 -10.28910 -10.28553  -1.04430
 Alpha  occ. eigenvalues --   -1.03949  -1.01005  -0.99573  -0.99040  -0.98552
 Alpha  occ. eigenvalues --   -0.98005  -0.97550  -0.96805  -0.95454  -0.94695
 Alpha  occ. eigenvalues --   -0.92935  -0.92379  -0.92057  -0.91415  -0.90911
 Alpha  occ. eigenvalues --   -0.87558  -0.87308  -0.86927  -0.86532  -0.86276
 Alpha  occ. eigenvalues --   -0.86032  -0.85833  -0.85356  -0.85224  -0.84888
 Alpha  occ. eigenvalues --   -0.84757  -0.84096  -0.82729  -0.82056  -0.81143
 Alpha  occ. eigenvalues --   -0.79356  -0.77961  -0.76951  -0.75480  -0.73897
 Alpha  occ. eigenvalues --   -0.73323  -0.72976  -0.72535  -0.72344  -0.71751
 Alpha  occ. eigenvalues --   -0.71623  -0.71041  -0.70490  -0.70166  -0.69825
 Alpha  occ. eigenvalues --   -0.69621  -0.69447  -0.69111  -0.67021  -0.66514
 Alpha  occ. eigenvalues --   -0.64895  -0.64192  -0.63732  -0.63382  -0.62962
 Alpha  occ. eigenvalues --   -0.62563  -0.61923  -0.61693  -0.61254  -0.60232
 Alpha  occ. eigenvalues --   -0.58777  -0.58528  -0.58370  -0.58106  -0.57764
 Alpha  occ. eigenvalues --   -0.56544  -0.56293  -0.55999  -0.55953  -0.55755
 Alpha  occ. eigenvalues --   -0.55411  -0.55270  -0.55135  -0.54602  -0.54326
 Alpha  occ. eigenvalues --   -0.54057  -0.53551  -0.53480  -0.53410  -0.53350
 Alpha  occ. eigenvalues --   -0.52872  -0.52461  -0.52323  -0.52156  -0.51669
 Alpha  occ. eigenvalues --   -0.51606  -0.51307  -0.51226  -0.51094  -0.51040
 Alpha  occ. eigenvalues --   -0.50802  -0.50514  -0.50114  -0.49683  -0.49433
 Alpha  occ. eigenvalues --   -0.49116  -0.48609  -0.48150  -0.47935  -0.47799
 Alpha  occ. eigenvalues --   -0.47284  -0.46563  -0.46429  -0.46001  -0.45820
 Alpha  occ. eigenvalues --   -0.45557  -0.45063  -0.44702  -0.44524  -0.44337
 Alpha  occ. eigenvalues --   -0.44073  -0.44023  -0.43894  -0.43793  -0.43416
 Alpha  occ. eigenvalues --   -0.43206  -0.42910  -0.42174  -0.41970  -0.41800
 Alpha  occ. eigenvalues --   -0.41321  -0.40854  -0.40718  -0.40105  -0.39457
 Alpha  occ. eigenvalues --   -0.38551  -0.38340  -0.37257  -0.36226  -0.35051
 Alpha  occ. eigenvalues --   -0.34255  -0.34105  -0.33728  -0.33476  -0.33245
 Alpha  occ. eigenvalues --   -0.33068  -0.32725  -0.32589  -0.32015  -0.31638
 Alpha  occ. eigenvalues --   -0.30702  -0.29649  -0.27653  -0.26416  -0.22637
 Alpha virt. eigenvalues --   -0.06061  -0.00870   0.00252   0.01566   0.03691
 Alpha virt. eigenvalues --    0.04088   0.04495   0.04709   0.04881   0.05300
 Alpha virt. eigenvalues --    0.05444   0.05664   0.05872   0.05946   0.06223
 Alpha virt. eigenvalues --    0.06379   0.06684   0.06709   0.06969   0.07160
 Alpha virt. eigenvalues --    0.07389   0.07494   0.07671   0.07850   0.08128
 Alpha virt. eigenvalues --    0.08163   0.08388   0.08559   0.08642   0.08821
 Alpha virt. eigenvalues --    0.09026   0.09198   0.09457   0.09653   0.09789
 Alpha virt. eigenvalues --    0.09899   0.10131   0.10183   0.10313   0.10503
 Alpha virt. eigenvalues --    0.10547   0.10751   0.10981   0.11122   0.11396
 Alpha virt. eigenvalues --    0.11464   0.11631   0.11973   0.12158   0.12267
 Alpha virt. eigenvalues --    0.12354   0.12490   0.12654   0.12816   0.12998
 Alpha virt. eigenvalues --    0.13298   0.13548   0.13831   0.14085   0.14296
 Alpha virt. eigenvalues --    0.14376   0.14538   0.14751   0.14920   0.15044
 Alpha virt. eigenvalues --    0.15251   0.15530   0.15844   0.16009   0.16160
 Alpha virt. eigenvalues --    0.16206   0.16715   0.16791   0.16963   0.17126
 Alpha virt. eigenvalues --    0.17350   0.17589   0.17645   0.17820   0.17992
 Alpha virt. eigenvalues --    0.18146   0.18212   0.18323   0.18641   0.18728
 Alpha virt. eigenvalues --    0.18943   0.18989   0.19204   0.19555   0.19595
 Alpha virt. eigenvalues --    0.19794   0.19863   0.20191   0.20301   0.20412
 Alpha virt. eigenvalues --    0.20529   0.20719   0.20806   0.20994   0.21102
 Alpha virt. eigenvalues --    0.21225   0.21489   0.21604   0.21737   0.21839
 Alpha virt. eigenvalues --    0.22015   0.22065   0.22282   0.22455   0.22590
 Alpha virt. eigenvalues --    0.22701   0.22978   0.22999   0.23194   0.23345
 Alpha virt. eigenvalues --    0.23441   0.23600   0.23682   0.23715   0.23949
 Alpha virt. eigenvalues --    0.24044   0.24191   0.24258   0.24456   0.24513
 Alpha virt. eigenvalues --    0.24597   0.24784   0.24885   0.25084   0.25206
 Alpha virt. eigenvalues --    0.25322   0.25394   0.25549   0.25664   0.25748
 Alpha virt. eigenvalues --    0.25876   0.25979   0.26138   0.26264   0.26449
 Alpha virt. eigenvalues --    0.26495   0.26568   0.26703   0.26871   0.26953
 Alpha virt. eigenvalues --    0.27145   0.27235   0.27345   0.27454   0.27635
 Alpha virt. eigenvalues --    0.27737   0.27870   0.27938   0.28022   0.28190
 Alpha virt. eigenvalues --    0.28337   0.28455   0.28576   0.28713   0.28779
 Alpha virt. eigenvalues --    0.28999   0.29066   0.29112   0.29232   0.29318
 Alpha virt. eigenvalues --    0.29421   0.29606   0.29682   0.29796   0.29949
 Alpha virt. eigenvalues --    0.30111   0.30241   0.30289   0.30515   0.30662
 Alpha virt. eigenvalues --    0.30679   0.30792   0.30919   0.30984   0.31144
 Alpha virt. eigenvalues --    0.31177   0.31273   0.31452   0.31604   0.31701
 Alpha virt. eigenvalues --    0.31769   0.31964   0.32016   0.32138   0.32317
 Alpha virt. eigenvalues --    0.32438   0.32602   0.32645   0.32885   0.32986
 Alpha virt. eigenvalues --    0.33182   0.33336   0.33403   0.33536   0.33677
 Alpha virt. eigenvalues --    0.33859   0.34000   0.34196   0.34358   0.34421
 Alpha virt. eigenvalues --    0.34595   0.34719   0.34732   0.34962   0.35189
 Alpha virt. eigenvalues --    0.35236   0.35455   0.35529   0.35636   0.35680
 Alpha virt. eigenvalues --    0.35770   0.35988   0.36006   0.36183   0.36294
 Alpha virt. eigenvalues --    0.36513   0.36586   0.36818   0.36969   0.37035
 Alpha virt. eigenvalues --    0.37246   0.37293   0.37382   0.37545   0.37617
 Alpha virt. eigenvalues --    0.37702   0.37920   0.38039   0.38219   0.38354
 Alpha virt. eigenvalues --    0.38525   0.38617   0.38769   0.38918   0.39043
 Alpha virt. eigenvalues --    0.39145   0.39343   0.39447   0.39598   0.39755
 Alpha virt. eigenvalues --    0.39877   0.39960   0.40212   0.40316   0.40392
 Alpha virt. eigenvalues --    0.40591   0.40717   0.40850   0.41080   0.41128
 Alpha virt. eigenvalues --    0.41291   0.41671   0.41847   0.41966   0.42214
 Alpha virt. eigenvalues --    0.42268   0.42517   0.42616   0.42779   0.42948
 Alpha virt. eigenvalues --    0.43097   0.43128   0.43306   0.43363   0.43518
 Alpha virt. eigenvalues --    0.43895   0.43976   0.44167   0.44333   0.44595
 Alpha virt. eigenvalues --    0.44738   0.44932   0.45004   0.45165   0.45254
 Alpha virt. eigenvalues --    0.45627   0.45748   0.46063   0.46128   0.46619
 Alpha virt. eigenvalues --    0.46679   0.46949   0.47255   0.47397   0.47658
 Alpha virt. eigenvalues --    0.47893   0.48105   0.48175   0.48368   0.48482
 Alpha virt. eigenvalues --    0.48860   0.48965   0.49380   0.49838   0.49905
 Alpha virt. eigenvalues --    0.50355   0.50458   0.50603   0.51298   0.51454
 Alpha virt. eigenvalues --    0.51601   0.51920   0.52381   0.52575   0.52715
 Alpha virt. eigenvalues --    0.52998   0.53229   0.53746   0.54309   0.54886
 Alpha virt. eigenvalues --    0.55298   0.55642   0.56178   0.56448   0.56785
 Alpha virt. eigenvalues --    0.57244   0.58198   0.58436   0.58828   0.59304
 Alpha virt. eigenvalues --    0.59672   0.59751   0.60366   0.60954   0.61107
 Alpha virt. eigenvalues --    0.62007   0.62225   0.62822   0.63560   0.64662
 Alpha virt. eigenvalues --    0.65161   0.65636   0.66099   0.66380   0.66631
 Alpha virt. eigenvalues --    0.67402   0.67555   0.68027   0.68209   0.68840
 Alpha virt. eigenvalues --    0.69237   0.69564   0.70350   0.71084   0.71513
 Alpha virt. eigenvalues --    0.72090   0.72168   0.73656   0.73819   0.74514
 Alpha virt. eigenvalues --    0.75315   0.75349   0.76379   0.77305   0.77822
 Alpha virt. eigenvalues --    0.77992   0.78139   0.78749   0.79103   0.79495
 Alpha virt. eigenvalues --    0.80022   0.80193   0.80409   0.80678   0.81282
 Alpha virt. eigenvalues --    0.81452   0.81963   0.82193   0.82245   0.82555
 Alpha virt. eigenvalues --    0.82728   0.82760   0.83150   0.83230   0.83679
 Alpha virt. eigenvalues --    0.83807   0.83964   0.84115   0.84330   0.84443
 Alpha virt. eigenvalues --    0.84662   0.85016   0.85135   0.85198   0.85375
 Alpha virt. eigenvalues --    0.85711   0.85771   0.86002   0.86021   0.86223
 Alpha virt. eigenvalues --    0.86327   0.86502   0.86718   0.86853   0.87289
 Alpha virt. eigenvalues --    0.87510   0.87642   0.87722   0.88116   0.88343
 Alpha virt. eigenvalues --    0.88482   0.88938   0.89064   0.89155   0.89387
 Alpha virt. eigenvalues --    0.89550   0.89765   0.90061   0.90182   0.90282
 Alpha virt. eigenvalues --    0.90542   0.90697   0.90833   0.90872   0.91369
 Alpha virt. eigenvalues --    0.91388   0.91571   0.91916   0.92119   0.92542
 Alpha virt. eigenvalues --    0.92798   0.93004   0.93388   0.93611   0.93785
 Alpha virt. eigenvalues --    0.93883   0.94402   0.94536   0.94830   0.95187
 Alpha virt. eigenvalues --    0.95315   0.95678   0.95891   0.96053   0.96366
 Alpha virt. eigenvalues --    0.96510   0.96623   0.96842   0.97154   0.97600
 Alpha virt. eigenvalues --    0.97730   0.97978   0.98206   0.98747   0.98950
 Alpha virt. eigenvalues --    0.99037   0.99555   0.99647   0.99972   1.00316
 Alpha virt. eigenvalues --    1.00792   1.00933   1.00986   1.01270   1.01391
 Alpha virt. eigenvalues --    1.01623   1.01880   1.02069   1.02446   1.02566
 Alpha virt. eigenvalues --    1.02896   1.03110   1.03324   1.03577   1.03709
 Alpha virt. eigenvalues --    1.03993   1.04417   1.04834   1.04975   1.05179
 Alpha virt. eigenvalues --    1.05981   1.06365   1.06714   1.07093   1.07208
 Alpha virt. eigenvalues --    1.07588   1.07877   1.08179   1.08292   1.08719
 Alpha virt. eigenvalues --    1.09234   1.09432   1.09592   1.10232   1.10465
 Alpha virt. eigenvalues --    1.10676   1.11003   1.11327   1.11637   1.11803
 Alpha virt. eigenvalues --    1.12233   1.12586   1.13134   1.13477   1.13602
 Alpha virt. eigenvalues --    1.13922   1.14240   1.14898   1.15228   1.15471
 Alpha virt. eigenvalues --    1.15738   1.15932   1.16430   1.17404   1.17588
 Alpha virt. eigenvalues --    1.17878   1.18393   1.18953   1.19151   1.19689
 Alpha virt. eigenvalues --    1.20461   1.21013   1.21923   1.22014   1.22212
 Alpha virt. eigenvalues --    1.22800   1.23267   1.23482   1.24279   1.24907
 Alpha virt. eigenvalues --    1.25695   1.26219   1.26813   1.27468   1.28272
 Alpha virt. eigenvalues --    1.29148   1.29849   1.30673   1.32538   1.32778
 Alpha virt. eigenvalues --    1.32980   1.33413   1.33883   1.34069   1.34157
 Alpha virt. eigenvalues --    1.34966   1.35476   1.35594   1.35800   1.36874
 Alpha virt. eigenvalues --    1.37060   1.37304   1.37451   1.37662   1.38022
 Alpha virt. eigenvalues --    1.38375   1.38666   1.38769   1.39085   1.40110
 Alpha virt. eigenvalues --    1.40512   1.41030   1.41450   1.41544   1.41845
 Alpha virt. eigenvalues --    1.42468   1.42807   1.43063   1.43310   1.43658
 Alpha virt. eigenvalues --    1.44141   1.44290   1.44645   1.44832   1.45379
 Alpha virt. eigenvalues --    1.45689   1.46198   1.47208   1.47359   1.48136
 Alpha virt. eigenvalues --    1.48232   1.48504   1.48672   1.49382   1.49773
 Alpha virt. eigenvalues --    1.50256   1.50659   1.50747   1.50982   1.52001
 Alpha virt. eigenvalues --    1.52313   1.53511   1.53812   1.54084   1.54200
 Alpha virt. eigenvalues --    1.54422   1.54705   1.55481   1.55812   1.56247
 Alpha virt. eigenvalues --    1.56958   1.57258   1.58320   1.58967   1.59275
 Alpha virt. eigenvalues --    1.59737   1.59958   1.60436   1.60831   1.61474
 Alpha virt. eigenvalues --    1.62490   1.62911   1.63273   1.64321   1.65053
 Alpha virt. eigenvalues --    1.65276   1.65480   1.66273   1.66725   1.66908
 Alpha virt. eigenvalues --    1.67594   1.68695   1.69057   1.70314   1.71050
 Alpha virt. eigenvalues --    1.71559   1.73164   1.73397   1.74714   1.75726
 Alpha virt. eigenvalues --    1.75963   1.77035   1.77488   1.79113   1.79393
 Alpha virt. eigenvalues --    1.80516   1.81874   1.82080   1.82390   1.82868
 Alpha virt. eigenvalues --    1.83851   1.85460   1.86950   1.89633   1.91576
 Alpha virt. eigenvalues --    1.92186   1.93417   1.94140   1.94783   1.97119
 Alpha virt. eigenvalues --    1.98588   2.00889   2.02464   2.06462   2.12016
 Alpha virt. eigenvalues --    2.13869   2.16173
          Condensed to atoms (all electrons):
 Mulliken charges:
               1
     1  C   -0.202765
     2  C   -0.048180
     3  C   -0.391674
     4  C    0.461532
     5  C   -0.014361
     6  C    0.021608
     7  C   -0.223165
     8  C   -0.317246
     9  C   -0.645907
    10  C   -0.166724
    11  C    0.561796
    12  C    0.287858
    13  C    0.581332
    14  C   -0.481826
    15  C   -0.058459
    16  C   -0.192801
    17  C   -0.238049
    18  C   -0.802883
    19  C    0.067560
    20  C   -0.001477
    21  C   -0.167331
    22  C   -0.281806
    23  C    0.037792
    24  C    0.127977
    25  C   -0.474976
    26  C   -0.392794
    27  C    0.460040
    28  C    0.143485
    29  C    0.335645
    30  C    0.203413
    31  C   -0.600726
    32  C   -0.213837
    33  C   -0.186834
    34  C   -0.071113
    35  C   -0.490030
    36  C    0.437598
    37  C   -0.529702
    38  C   -0.103648
    39  C   -0.243975
    40  C   -0.486190
    41  C    0.407093
    42  C   -0.133605
    43  C   -0.024443
    44  C   -0.130736
    45  C   -0.220543
    46  C   -0.169086
    47  C   -0.273110
    48  C   -0.754988
    49  C    0.328737
    50  C   -0.032514
    51  C   -0.420731
    52  C   -0.044247
    53  C    0.336535
    54  C    0.023716
    55  C   -0.429766
    56  C   -0.394399
    57  C    0.081828
    58  C    0.217055
    59  C   -0.547157
    60  C    0.242397
    61  C    0.181411
    62  C   -0.648799
    63  C   -0.835702
    64  C   -0.213162
    65  H    0.195027
    66  H    0.215419
    67  H    0.227177
    68  H    0.218283
    69  H    0.210636
    70  H    0.205072
    71  H    0.211523
    72  H    0.224555
    73  H    0.203967
    74  H    0.204794
    75  H    0.212275
    76  H    0.236589
    77  H    0.242058
    78  H    0.200557
    79  H    0.200242
    80  H    0.240123
    81  H    0.220342
    82  H    0.211680
    83  H    0.198726
    84  H    0.202057
    85  H    0.235893
    86  H    0.238651
    87  H    0.203456
    88  H    0.204222
    89  H    0.235580
    90  H    0.201102
    91  H    0.215248
    92  H    0.199435
    93  H    0.196502
    94  H    0.230902
    95  H    0.234071
    96  H    0.210464
    97  H    0.209267
    98  H    0.228851
    99  H    0.217452
   100  H    0.212867
 Sum of Mulliken charges =  -0.00000
 Mulliken charges with hydrogens summed into heavy atoms:
               1
     1  C   -0.007738
     2  C    0.167239
     3  C   -0.164496
     4  C    0.461532
     5  C   -0.014361
     6  C    0.021608
     7  C   -0.004883
     8  C   -0.106610
     9  C   -0.440835
    10  C    0.044799
    11  C    0.561796
    12  C    0.287858
    13  C    0.581332
    14  C   -0.257272
    15  C    0.145508
    16  C    0.011993
    17  C   -0.025774
    18  C   -0.566294
    19  C    0.067560
    20  C   -0.001477
    21  C    0.074727
    22  C   -0.081248
    23  C    0.037792
    24  C    0.127977
    25  C   -0.274734
    26  C   -0.152670
    27  C    0.460040
    28  C    0.143485
    29  C    0.335645
    30  C    0.203413
    31  C   -0.380384
    32  C   -0.002157
    33  C    0.011892
    34  C    0.130943
    35  C   -0.254137
    36  C    0.437598
    37  C   -0.291050
    38  C    0.099808
    39  C   -0.039753
    40  C   -0.250610
    41  C    0.407093
    42  C   -0.133605
    43  C   -0.024443
    44  C    0.070366
    45  C   -0.005295
    46  C    0.030349
    47  C   -0.076609
    48  C   -0.524086
    49  C    0.328737
    50  C   -0.032514
    51  C   -0.186660
    52  C    0.166218
    53  C    0.336535
    54  C    0.023716
    55  C   -0.220499
    56  C   -0.165548
    57  C    0.081828
    58  C    0.217055
    59  C   -0.547157
    60  C    0.242397
    61  C    0.181411
    62  C   -0.648799
    63  C   -0.618251
    64  C   -0.000295
 DipInt: DoE/N= T F RetVal/Mat= T F Init=T NMatP=  1 IDeriv=0 Min/MaxMlt=  0  4
 Entering OneElI...
 OneElI was handed 13419707229 working-precision words.
 Multipole integrals L=0 to 4 MinM= 0 MaxM= 0.
 Requested accuracy = 0.1000D-12
 PrtBox:  NBox=     1 Levels=  1 BoxLen=   69.42 SMaxX=       40.26
          Shift=           20.166129           12.501926            4.464804
 Box      1 Number                   0 centers from      1 to    328:
 ShPair: Thresh= 1.00D-13 NBox=     1 BxSize= 6.94D+01 RnKept= 3.68D+01
         NSMCal=                53956 NSMKep=               33567
 PrmmSu-InSpLW:  IPartL=    0 NPrtUS=    1 NPrtUL=    1 DoSpLW=F IThBeg=    0 IThEnd=    0 NThAct=    1.
 PrSmSu:  IncTry=   512 NBBP=          33567 NTPThr=   100 NPartT=    1 Incr=         335 LDynOK=F GPUOK=F.
 PrsmSu:  NPrtUS=   1 ThrOK=F IAlg=2 LenDen=           0 ISkipM=0 DoSpLW=F IThBeg=    0 IThEnd=    0.
 Prism:   IPart=     0 DynPar=F LinDyn=F Incr=         335.
 PRISM was handed 13416799972 working-precision words and 33567 shell-pairs
 IPart=  0 NShTot=       33567 NBatch=         193 AvBLen=       173.9
 PrsmSu-ThDecC:  IPartSL=    0    0 NPrtUSL=    1    1 IThBeg=    0 IThEnd=    0 CPU=   -1 GPU=   -1 NThAct=    1.
 PrSmSu:  NxtVal=            336.
 Electronic moments (au):
       -420.00000000          0.30316711         -0.07666891         -0.05076741
     -49692.08819428     -13407.61572097      -1096.18345926         -2.44016070
         -9.97463802         -2.64042489      -2319.06070457       -332.30876019
       -657.57720593        964.47221982       7823.41165497       6907.07111449
       -143.73198133        427.82022361      -2397.41539246      14659.83965246
   -9551872.72048660   -1002241.44968892     -12621.81496011     -29466.12924690
      96745.60507014      -3923.78054525       8375.41487085      -4305.12515929
        933.68178932   -1520758.48469561    -132799.85886884     -60977.84950981
      15133.28357662     -12565.18403227      11055.13569395
 Electronic spatial extent (au):  <R**2>=          64195.8874
 DipInt: DoE/N= F T RetVal/Mat= T F Init=T NMatP=  1 IDeriv=0 Min/MaxMlt=  0  4
 Nuclear    moments (au):
        420.00000000         -0.00000000         -0.00000000          0.00000000
      49423.81299462      13171.27842463        825.44164450          0.00000000
         -0.00000000         -0.00000000       2449.84337521        307.22404979
        676.28839623       -919.58421200      -7924.71761830      -6978.86383861
        135.94954694       -415.81910214       2396.09012922     -14693.44585054
    9367356.43139769     956106.68101352       8685.24980560      29535.90697120
     -99881.03404639       3368.60202694      -8850.28854398       4243.81762389
      -1002.31761402    1482225.57219799      99745.58160282      52357.96207917
     -15811.95007946      11474.92782126     -11134.60527988
 Total      moments (au):
         -0.00000000          0.30316711         -0.07666891         -0.05076741
       -268.27519966       -236.33729634       -270.74181476         -2.44016070
         -9.97463802         -2.64042489        130.78267064        -25.08471039
         18.71119030         44.88800781       -101.30596333        -71.79272413
         -7.78243439         12.00112148         -1.32526324        -33.60619808
    -184516.28908892     -46134.76867540      -3936.56515451         69.77772430
      -3135.42897625       -555.17851832       -474.87367314        -61.30753539
        -68.63582470     -38532.91249761     -33054.27726601      -8619.88743064
       -678.66650285      -1090.25621101        -79.46958594
 Traceless Quadrup. (au):
         -9.82376274         22.11414058        -12.29037784         -2.44016070
         -9.97463802         -2.64042489
 Charge=             -0.0000 electrons
 Dipole moment (field-independent basis, Debye):
    X=              0.7706    Y=             -0.1949    Z=             -0.1290  Tot=              0.8052
 Quadrupole moment (field-independent basis, Debye-Ang):
   XX=           -360.8393   YY=           -317.8818   ZZ=           -364.1570
   XY=             -3.2821   XZ=            -13.4162   YZ=             -3.5515
 Traceless Quadrupole moment (field-independent basis, Debye-Ang):
   XX=            -13.2133   YY=             29.7443   ZZ=            -16.5310
   XY=             -3.2821   XZ=            -13.4162   YZ=             -3.5515
 Octapole moment (field-independent basis, Debye-Ang**2):
  XXX=             93.0861  YYY=            -17.8543  ZZZ=             13.3179  XYY=             31.9496
  XXY=            -72.1057  XXZ=            -51.0993  XZZ=             -5.5392  YZZ=              8.5419
  YYZ=             -0.9433  XYZ=            -23.9196
 Hexadecapole moment (field-independent basis, Debye-Ang**3):
 XXXX=         -69497.6823 YYYY=         -17376.5661 ZZZZ=          -1482.6992 XXXY=             26.2816
 XXXZ=          -1180.9529 YYYX=           -209.1069 YYYZ=           -178.8602 ZZZX=            -23.0914
 ZZZY=            -25.8515 XXYY=         -14513.3426 XXZZ=         -12449.8258 YYZZ=          -3246.6629
 XXYZ=           -255.6183 YYXZ=           -410.6428 ZZXY=            -29.9321
 N-N= 8.151714013415D+03 E-N=-2.200748562117D+04  KE= 2.449312857953D+03
 Entering OneElI...
 OneElI was handed 13420112785 working-precision words.
 Calculate electrostatic properties
    NBasis =   904  MinDer = 0  MaxDer = 0
    NGrid  =   100  NMatD  =   1
 Requested accuracy = 0.1000D-12
 PrtBox:  NBox=     1 Levels=  1 BoxLen=   57.85 SMaxX=       40.26
          Shift=           20.166129           12.501926            4.464804
 Box      1 Number                   0 centers from      1 to    328:
 ShPair: Thresh= 1.00D-13 NBox=     1 BxSize= 5.79D+01 RnKept= 3.68D+01
         NSMCal=                53956 NSMKep=               30550
 PrmmSu-InSpLW:  IPartL=    0 NPrtUS=   40 NPrtUL=    1 DoSpLW=F IThBeg=    0 IThEnd=   39 NThAct=   40.
 PrSmSu:  IncTry=   512 NBBP=        3055000 NTPThr=   100 NPartT=   40 Incr=         512 LDynOK=F GPUOK=F.
 PrsmSu:  NPrtUS=  40 ThrOK=T IAlg=2 LenDen=           0 ISkipM=0 DoSpLW=F IThBeg=    0 IThEnd=   39.
 Prism:   IPart=     0 DynPar=F LinDyn=F Incr=         512.
 PRISM was handed   334569591 working-precision words and 30550 shell-pairs
 PRISM was handed   334569591 working-precision words and 30550 shell-pairs
 PRISM was handed   334569591 working-precision words and 30550 shell-pairs
 PRISM was handed   334569591 working-precision words and 30550 shell-pairs
 PRISM was handed   334569591 working-precision words and 30550 shell-pairs
 PRISM was handed   334569591 working-precision words and 30550 shell-pairs
 PRISM was handed   334569591 working-precision words and 30550 shell-pairs
 PRISM was handed   334569591 working-precision words and 30550 shell-pairs
 PRISM was handed   334569591 working-precision words and 30550 shell-pairs
 PRISM was handed   334569591 working-precision words and 30550 shell-pairs
 PRISM was handed   334569591 working-precision words and 30550 shell-pairs
 PRISM was handed   334569591 working-precision words and 30550 shell-pairs
 PRISM was handed   334569591 working-precision words and 30550 shell-pairs
 PRISM was handed   334569591 working-precision words and 30550 shell-pairs
 PRISM was handed   334569591 working-precision words and 30550 shell-pairs
 PRISM was handed   334569591 working-precision words and 30550 shell-pairs
 PRISM was handed   334569591 working-precision words and 30550 shell-pairs
 PRISM was handed   334569591 working-precision words and 30550 shell-pairs
 PRISM was handed   334569591 working-precision words and 30550 shell-pairs
 PRISM was handed   334569591 working-precision words and 30550 shell-pairs
 PRISM was handed   334569591 working-precision words and 30550 shell-pairs
 PRISM was handed   334569591 working-precision words and 30550 shell-pairs
 PRISM was handed   334569591 working-precision words and 30550 shell-pairs
 PRISM was handed   334569591 working-precision words and 30550 shell-pairs
 PRISM was handed   334569591 working-precision words and 30550 shell-pairs
 PRISM was handed   334569591 working-precision words and 30550 shell-pairs
 PRISM was handed   334569591 working-precision words and 30550 shell-pairs
 PRISM was handed   334569591 working-precision words and 30550 shell-pairs
 PRISM was handed   334569591 working-precision words and 30550 shell-pairs
 PRISM was handed   334569591 working-precision words and 30550 shell-pairs
 PRISM was handed   334569591 working-precision words and 30550 shell-pairs
 PRISM was handed   334569591 working-precision words and 30550 shell-pairs
 PRISM was handed   334569591 working-precision words and 30550 shell-pairs
 PRISM was handed   334569591 working-precision words and 30550 shell-pairs
 PRISM was handed   334569591 working-precision words and 30550 shell-pairs
 PRISM was handed   334569591 working-precision words and 30550 shell-pairs
 PRISM was handed   334569591 working-precision words and 30550 shell-pairs
 PRISM was handed   334569591 working-precision words and 30550 shell-pairs
 PRISM was handed   334569591 working-precision words and 30550 shell-pairs
 PRISM was handed   334569591 working-precision words and 30550 shell-pairs
 IPart= 37 NShTot=       74700 NBatch=         747 AvBLen=       100.0
 IPart= 28 NShTot=       75600 NBatch=         756 AvBLen=       100.0
 PrsmSu-ThDecC:  IPartSL=   37    0 NPrtUSL=   40    1 IThBeg=    0 IThEnd=   39 CPU=   -1 GPU=   -1 NThAct=   40.
 IPart= 38 NShTot=       74700 NBatch=         747 AvBLen=       100.0
 IPart= 26 NShTot=       76000 NBatch=         760 AvBLen=       100.0
 PrsmSu-ThDecC:  IPartSL=   28    0 NPrtUSL=   40    1 IThBeg=    0 IThEnd=   39 CPU=   -1 GPU=   -1 NThAct=   39.
 PrsmSu-ThDecC:  IPartSL=   26    0 NPrtUSL=   40    1 IThBeg=    0 IThEnd=   39 CPU=   -1 GPU=   -1 NThAct=   38.
 PrsmSu-ThDecC:  IPartSL=   38    0 NPrtUSL=   40    1 IThBeg=    0 IThEnd=   39 CPU=   -1 GPU=   -1 NThAct=   37.
 IPart=  0 NShTot=       77700 NBatch=         777 AvBLen=       100.0
 PrsmSu-ThDecC:  IPartSL=    0    0 NPrtUSL=   40    1 IThBeg=    0 IThEnd=   39 CPU=   -1 GPU=   -1 NThAct=   36.
 IPart=  7 NShTot=       77300 NBatch=         773 AvBLen=       100.0
 PrsmSu-ThDecC:  IPartSL=    7    0 NPrtUSL=   40    1 IThBeg=    0 IThEnd=   39 CPU=   -1 GPU=   -1 NThAct=   35.
 IPart= 12 NShTot=       77000 NBatch=         770 AvBLen=       100.0
 PrsmSu-ThDecC:  IPartSL=   12    0 NPrtUSL=   40    1 IThBeg=    0 IThEnd=   39 CPU=   -1 GPU=   -1 NThAct=   34.
 IPart= 10 NShTot=       77000 NBatch=         770 AvBLen=       100.0
 PrsmSu-ThDecC:  IPartSL=   10    0 NPrtUSL=   40    1 IThBeg=    0 IThEnd=   39 CPU=   -1 GPU=   -1 NThAct=   33.
 IPart= 39 NShTot=       74700 NBatch=         747 AvBLen=       100.0
 PrsmSu-ThDecC:  IPartSL=   39    0 NPrtUSL=   40    1 IThBeg=    0 IThEnd=   39 CPU=   -1 GPU=   -1 NThAct=   32.
 IPart= 20 NShTot=       76700 NBatch=         767 AvBLen=       100.0
 PrsmSu-ThDecC:  IPartSL=   20    0 NPrtUSL=   40    1 IThBeg=    0 IThEnd=   39 CPU=   -1 GPU=   -1 NThAct=   31.
 IPart= 36 NShTot=       74700 NBatch=         747 AvBLen=       100.0
 PrsmSu-ThDecC:  IPartSL=   36    0 NPrtUSL=   40    1 IThBeg=    0 IThEnd=   39 CPU=   -1 GPU=   -1 NThAct=   30.
 IPart= 19 NShTot=       76900 NBatch=         769 AvBLen=       100.0
 IPart= 24 NShTot=       76200 NBatch=         762 AvBLen=       100.0
 IPart=  2 NShTot=       77500 NBatch=         775 AvBLen=       100.0
 PrsmSu-ThDecC:  IPartSL=   19    0 NPrtUSL=   40    1 IThBeg=    0 IThEnd=   39 CPU=   -1 GPU=   -1 NThAct=   29.
 PrsmSu-ThDecC:  IPartSL=   24    0 NPrtUSL=   40    1 IThBeg=    0 IThEnd=   39 CPU=   -1 GPU=   -1 NThAct=   28.
 PrsmSu-ThDecC:  IPartSL=    2    0 NPrtUSL=   40    1 IThBeg=    0 IThEnd=   39 CPU=   -1 GPU=   -1 NThAct=   27.
 IPart= 13 NShTot=       77000 NBatch=         770 AvBLen=       100.0
 PrsmSu-ThDecC:  IPartSL=   13    0 NPrtUSL=   40    1 IThBeg=    0 IThEnd=   39 CPU=   -1 GPU=   -1 NThAct=   26.
 IPart=  8 NShTot=       77100 NBatch=         771 AvBLen=       100.0
 PrsmSu-ThDecC:  IPartSL=    8    0 NPrtUSL=   40    1 IThBeg=    0 IThEnd=   39 CPU=   -1 GPU=   -1 NThAct=   25.
 IPart=  1 NShTot=       77700 NBatch=         777 AvBLen=       100.0
 PrsmSu-ThDecC:  IPartSL=    1    0 NPrtUSL=   40    1 IThBeg=    0 IThEnd=   39 CPU=   -1 GPU=   -1 NThAct=   24.
 IPart=  9 NShTot=       77000 NBatch=         770 AvBLen=       100.0
 PrsmSu-ThDecC:  IPartSL=    9    0 NPrtUSL=   40    1 IThBeg=    0 IThEnd=   39 CPU=   -1 GPU=   -1 NThAct=   23.
 IPart=  3 NShTot=       77500 NBatch=         775 AvBLen=       100.0
 PrsmSu-ThDecC:  IPartSL=    3    0 NPrtUSL=   40    1 IThBeg=    0 IThEnd=   39 CPU=   -1 GPU=   -1 NThAct=   22.
 IPart=  5 NShTot=       77300 NBatch=         773 AvBLen=       100.0
 IPart= 23 NShTot=       76400 NBatch=         764 AvBLen=       100.0
 PrsmSu-ThDecC:  IPartSL=    5    0 NPrtUSL=   40    1 IThBeg=    0 IThEnd=   39 CPU=   -1 GPU=   -1 NThAct=   21.
 PrsmSu-ThDecC:  IPartSL=   23    0 NPrtUSL=   40    1 IThBeg=    0 IThEnd=   39 CPU=   -1 GPU=   -1 NThAct=   20.
 IPart= 18 NShTot=       76900 NBatch=         769 AvBLen=       100.0
 IPart= 32 NShTot=       75200 NBatch=         752 AvBLen=       100.0
 PrsmSu-ThDecC:  IPartSL=   18    0 NPrtUSL=   40    1 IThBeg=    0 IThEnd=   39 CPU=   -1 GPU=   -1 NThAct=   19.
 PrsmSu-ThDecC:  IPartSL=   32    0 NPrtUSL=   40    1 IThBeg=    0 IThEnd=   39 CPU=   -1 GPU=   -1 NThAct=   18.
 IPart= 21 NShTot=       76700 NBatch=         767 AvBLen=       100.0
 PrsmSu-ThDecC:  IPartSL=   21    0 NPrtUSL=   40    1 IThBeg=    0 IThEnd=   39 CPU=   -1 GPU=   -1 NThAct=   17.
 IPart= 25 NShTot=       76100 NBatch=         761 AvBLen=       100.0
 PrsmSu-ThDecC:  IPartSL=   25    0 NPrtUSL=   40    1 IThBeg=    0 IThEnd=   39 CPU=   -1 GPU=   -1 NThAct=   16.
 IPart= 16 NShTot=       76900 NBatch=         769 AvBLen=       100.0
 PrsmSu-ThDecC:  IPartSL=   16    0 NPrtUSL=   40    1 IThBeg=    0 IThEnd=   39 CPU=   -1 GPU=   -1 NThAct=   15.
 IPart=  4 NShTot=       77400 NBatch=         774 AvBLen=       100.0
 PrsmSu-ThDecC:  IPartSL=    4    0 NPrtUSL=   40    1 IThBeg=    0 IThEnd=   39 CPU=   -1 GPU=   -1 NThAct=   14.
 IPart=  6 NShTot=       77300 NBatch=         773 AvBLen=       100.0
 PrsmSu-ThDecC:  IPartSL=    6    0 NPrtUSL=   40    1 IThBeg=    0 IThEnd=   39 CPU=   -1 GPU=   -1 NThAct=   13.
 IPart= 29 NShTot=       75600 NBatch=         756 AvBLen=       100.0
 PrsmSu-ThDecC:  IPartSL=   29    0 NPrtUSL=   40    1 IThBeg=    0 IThEnd=   39 CPU=   -1 GPU=   -1 NThAct=   12.
 IPart= 17 NShTot=       76900 NBatch=         769 AvBLen=       100.0
 PrsmSu-ThDecC:  IPartSL=   17    0 NPrtUSL=   40    1 IThBeg=    0 IThEnd=   39 CPU=   -1 GPU=   -1 NThAct=   11.
 IPart= 35 NShTot=       75000 NBatch=         750 AvBLen=       100.0
 PrsmSu-ThDecC:  IPartSL=   35    0 NPrtUSL=   40    1 IThBeg=    0 IThEnd=   39 CPU=   -1 GPU=   -1 NThAct=   10.
 IPart= 15 NShTot=       77000 NBatch=         770 AvBLen=       100.0
 PrsmSu-ThDecC:  IPartSL=   15    0 NPrtUSL=   40    1 IThBeg=    0 IThEnd=   39 CPU=   -1 GPU=   -1 NThAct=    9.
 IPart= 22 NShTot=       76500 NBatch=         765 AvBLen=       100.0
 PrsmSu-ThDecC:  IPartSL=   22    0 NPrtUSL=   40    1 IThBeg=    0 IThEnd=   39 CPU=   -1 GPU=   -1 NThAct=    8.
 IPart= 11 NShTot=       77000 NBatch=         770 AvBLen=       100.0
 PrsmSu-ThDecC:  IPartSL=   11    0 NPrtUSL=   40    1 IThBeg=    0 IThEnd=   39 CPU=   -1 GPU=   -1 NThAct=    7.
 IPart= 27 NShTot=       75700 NBatch=         757 AvBLen=       100.0
 PrsmSu-ThDecC:  IPartSL=   27    0 NPrtUSL=   40    1 IThBeg=    0 IThEnd=   39 CPU=   -1 GPU=   -1 NThAct=    6.
 IPart= 30 NShTot=       75500 NBatch=         755 AvBLen=       100.0
 PrsmSu-ThDecC:  IPartSL=   30    0 NPrtUSL=   40    1 IThBeg=    0 IThEnd=   39 CPU=   -1 GPU=   -1 NThAct=    5.
 IPart= 33 NShTot=       75200 NBatch=         752 AvBLen=       100.0
 PrsmSu-ThDecC:  IPartSL=   33    0 NPrtUSL=   40    1 IThBeg=    0 IThEnd=   39 CPU=   -1 GPU=   -1 NThAct=    4.
 IPart= 31 NShTot=       75400 NBatch=         754 AvBLen=       100.0
 PrsmSu-ThDecC:  IPartSL=   31    0 NPrtUSL=   40    1 IThBeg=    0 IThEnd=   39 CPU=   -1 GPU=   -1 NThAct=    3.
 IPart= 34 NShTot=       75000 NBatch=         750 AvBLen=       100.0
 PrsmSu-ThDecC:  IPartSL=   34    0 NPrtUSL=   40    1 IThBeg=    0 IThEnd=   39 CPU=   -1 GPU=   -1 NThAct=    2.
 IPart= 14 NShTot=       77000 NBatch=         770 AvBLen=       100.0
 PrsmSu-ThDecC:  IPartSL=   14    0 NPrtUSL=   40    1 IThBeg=    0 IThEnd=   39 CPU=   -1 GPU=   -1 NThAct=    1.
 PrSmSu:  NxtVal=          20481.
 --------------------------------------------------------
       Center         ----      EFG at Nuclei      ----
                      3XX-RR        3YY-RR        3ZZ-RR
 --------------------------------------------------------
     1   Atom       -0.098887      0.075240      0.023647
     2   Atom       -0.088111      0.070347      0.017764
     3   Atom       -0.136197      0.105117      0.031080
     4   Atom       -0.123054      0.091716      0.031337
     5   Atom        0.109631      0.106927     -0.216558
     6   Atom        0.104888      0.109982     -0.214870
     7   Atom        0.104303      0.125980     -0.230283
     8   Atom        0.123802      0.133624     -0.257426
     9   Atom        0.108173      0.137295     -0.245468
    10   Atom        0.125588      0.126137     -0.251725
    11   Atom        0.112722      0.100564     -0.213286
    12   Atom        0.102199      0.104798     -0.206996
    13   Atom       -0.138677      0.091514      0.047163
    14   Atom       -0.163906      0.129213      0.034693
    15   Atom       -0.184563      0.118513      0.066050
    16   Atom       -0.172399      0.113619      0.058780
    17   Atom       -0.190256      0.142608      0.047648
    18   Atom       -0.162091      0.122467      0.039624
    19   Atom        0.076558      0.128809     -0.205367
    20   Atom        0.103534      0.125682     -0.229216
    21   Atom        0.156400      0.111980     -0.268380
    22   Atom        0.136271      0.077565     -0.213836
    23   Atom        0.136970      0.112140     -0.249110
    24   Atom        0.122712      0.139321     -0.262034
    25   Atom        0.101779      0.112265     -0.214043
    26   Atom        0.131093      0.142590     -0.273683
    27   Atom        0.116109      0.105848     -0.221957
    28   Atom        0.068117      0.114964     -0.183081
    29   Atom        0.090629      0.117505     -0.208134
    30   Atom       -0.130541      0.136674     -0.006132
    31   Atom       -0.143236      0.148562     -0.005326
    32   Atom       -0.142366      0.129717      0.012649
    33   Atom       -0.141259      0.107880      0.033379
    34   Atom       -0.145147      0.143603      0.001544
    35   Atom       -0.150157      0.156541     -0.006383
    36   Atom        0.126704      0.088723     -0.215428
    37   Atom        0.132388      0.099264     -0.231653
    38   Atom        0.118038      0.102562     -0.220600
    39   Atom        0.122233      0.108063     -0.230296
    40   Atom        0.136144      0.101424     -0.237568
    41   Atom        0.125210      0.096069     -0.221279
    42   Atom        0.118815      0.076057     -0.194872
    43   Atom       -0.200062      0.099875      0.100187
    44   Atom       -0.189303      0.096152      0.093151
    45   Atom       -0.222099      0.091115      0.130985
    46   Atom       -0.210520      0.077969      0.132551
    47   Atom       -0.227311      0.112999      0.114312
    48   Atom       -0.204720      0.107412      0.097307
    49   Atom        0.095087      0.103433     -0.198520
    50   Atom        0.120918      0.103885     -0.224804
    51   Atom        0.140657      0.137909     -0.278566
    52   Atom        0.109030      0.085598     -0.194627
    53   Atom        0.121886      0.122841     -0.244727
    54   Atom        0.117022      0.132662     -0.249684
    55   Atom        0.089898      0.106286     -0.196184
    56   Atom        0.126026      0.152679     -0.278705
    57   Atom        0.075540      0.148236     -0.223777
    58   Atom        0.058199      0.136430     -0.194629
    59   Atom        0.103113      0.134984     -0.238097
    60   Atom        0.125733      0.084717     -0.210450
    61   Atom        0.112524      0.105765     -0.218290
    62   Atom        0.087502      0.133137     -0.220639
    63   Atom       -0.134416      0.111204      0.023213
    64   Atom       -0.111517      0.092414      0.019103
    65   Atom        0.132680     -0.255378      0.122698
    66   Atom       -0.080261      0.049911      0.030350
    67   Atom        0.129362      0.065130     -0.194492
    68   Atom        0.137273     -0.293329      0.156057
    69   Atom       -0.185751      0.018663      0.167089
    70   Atom       -0.147361     -0.024079      0.171439
    71   Atom        0.138189     -0.309089      0.170901
    72   Atom        0.103589      0.142111     -0.245700
    73   Atom        0.119088     -0.141213      0.022125
    74   Atom        0.166356     -0.276212      0.109856
    75   Atom        0.105221      0.139052     -0.244274
    76   Atom        0.067713     -0.096037      0.028324
    77   Atom        0.034953     -0.202178      0.167224
    78   Atom        0.076055     -0.250540      0.174485
    79   Atom        0.032862     -0.206509      0.173647
    80   Atom        0.051796     -0.211942      0.160146
    81   Atom        0.048865      0.075459     -0.124323
    82   Atom        0.126134      0.033814     -0.159948
    83   Atom        0.140722     -0.296906      0.156185
    84   Atom        0.038951      0.075893     -0.114845
    85   Atom        0.085129     -0.005931     -0.079197
    86   Atom        0.147082     -0.271861      0.124779
    87   Atom       -0.207982      0.052532      0.155450
    88   Atom       -0.200398      0.034849      0.165549
    89   Atom        0.144565     -0.311358      0.166792
    90   Atom        0.154908      0.008532     -0.163440
    91   Atom        0.159881      0.063929     -0.223810
    92   Atom        0.109461     -0.256797      0.147336
    93   Atom        0.134896      0.018572     -0.153468
    94   Atom        0.152486      0.074529     -0.227015
    95   Atom        0.025205     -0.189144      0.163939
    96   Atom        0.063444     -0.217582      0.154138
    97   Atom        0.054341     -0.221077      0.166736
    98   Atom        0.000655     -0.119654      0.118999
    99   Atom        0.062274      0.038991     -0.101265
   100   Atom        0.138003      0.018051     -0.156054
 --------------------------------------------------------
                        XY            XZ            YZ
 --------------------------------------------------------
     1   Atom       -0.084281     -0.181430     -0.071162
     2   Atom       -0.079545     -0.135633     -0.087205
     3   Atom       -0.092981     -0.139195     -0.048864
     4   Atom       -0.047574     -0.135170     -0.028110
     5   Atom       -0.021709     -0.014880      0.004301
     6   Atom       -0.018760     -0.047349     -0.006183
     7   Atom       -0.054410     -0.043220     -0.017359
     8   Atom       -0.033942     -0.027659     -0.021616
     9   Atom        0.019655     -0.035887     -0.006072
    10   Atom        0.025191     -0.035564     -0.006625
    11   Atom       -0.025528     -0.051128     -0.017998
    12   Atom       -0.021967     -0.027134     -0.041831
    13   Atom       -0.032912     -0.151119     -0.008814
    14   Atom       -0.029397     -0.131009     -0.011451
    15   Atom       -0.021296     -0.147079     -0.026839
    16   Atom       -0.034249     -0.142708      0.018471
    17   Atom       -0.061834     -0.132733      0.000947
    18   Atom       -0.049167     -0.131133     -0.042444
    19   Atom       -0.013128      0.009783     -0.032621
    20   Atom       -0.030495     -0.000911      0.015201
    21   Atom       -0.022510      0.005996      0.008499
    22   Atom        0.011373      0.005287      0.001657
    23   Atom        0.009186      0.002412      0.014955
    24   Atom        0.003574     -0.000878      0.008993
    25   Atom        0.010140     -0.001169     -0.000855
    26   Atom        0.030452      0.002603     -0.018782
    27   Atom        0.041712      0.013208     -0.004181
    28   Atom       -0.005404      0.015660      0.035054
    29   Atom       -0.014160     -0.000412      0.050626
    30   Atom       -0.020816     -0.157766      0.020869
    31   Atom       -0.043517     -0.151431     -0.001710
    32   Atom       -0.053162     -0.164004     -0.013349
    33   Atom       -0.041807     -0.153633     -0.021144
    34   Atom       -0.041560     -0.142665     -0.016824
    35   Atom       -0.013768     -0.137849     -0.004251
    36   Atom        0.009878      0.023487      0.059770
    37   Atom       -0.028895      0.016386      0.085350
    38   Atom       -0.023315      0.016341      0.094044
    39   Atom        0.016906      0.011638      0.066721
    40   Atom        0.024125      0.004609      0.061122
    41   Atom       -0.028344      0.003786      0.044093
    42   Atom       -0.008146     -0.001428      0.039920
    43   Atom        0.076398     -0.063420     -0.012725
    44   Atom        0.086325     -0.049299     -0.008480
    45   Atom        0.103108     -0.040131     -0.013034
    46   Atom        0.100189     -0.041210     -0.000299
    47   Atom        0.083614     -0.045172      0.015520
    48   Atom        0.061716     -0.070075      0.001909
    49   Atom        0.009776     -0.002995      0.046539
    50   Atom       -0.034202     -0.004062      0.037447
    51   Atom       -0.029748      0.014742      0.062348
    52   Atom       -0.009954      0.006268      0.060641
    53   Atom       -0.000974     -0.023140      0.052721
    54   Atom       -0.003069     -0.038158     -0.022647
    55   Atom        0.005037     -0.035561     -0.042092
    56   Atom        0.023742     -0.026266     -0.082816
    57   Atom        0.042077     -0.010878     -0.052353
    58   Atom        0.010021     -0.002865     -0.003052
    59   Atom        0.017082      0.003400     -0.001031
    60   Atom        0.004939     -0.004427      0.005985
    61   Atom       -0.006377      0.003897      0.021101
    62   Atom        0.000229      0.015217      0.032492
    63   Atom       -0.063826     -0.157493     -0.041373
    64   Atom       -0.088802     -0.160583     -0.024373
    65   Atom        0.115700     -0.022222      0.124300
    66   Atom        0.163734      0.183385     -0.110256
    67   Atom       -0.049080      0.116024      0.178020
    68   Atom       -0.057261      0.009440      0.083279
    69   Atom       -0.209708      0.035631      0.022174
    70   Atom        0.226077     -0.007280      0.006098
    71   Atom        0.056567      0.002680     -0.014059
    72   Atom       -0.023538      0.164541      0.062324
    73   Atom        0.118611      0.087558     -0.197239
    74   Atom       -0.027633      0.017143      0.135684
    75   Atom       -0.023967      0.162621      0.068060
    76   Atom        0.158438      0.117818     -0.170809
    77   Atom        0.200230      0.009844     -0.019902
    78   Atom       -0.167621     -0.006833     -0.018737
    79   Atom        0.201337     -0.001089      0.002756
    80   Atom       -0.189839      0.025942      0.051771
    81   Atom        0.094307      0.188798     -0.142662
    82   Atom       -0.065874      0.120549      0.194920
    83   Atom        0.106463      0.004407      0.021635
    84   Atom        0.098448      0.194436     -0.140341
    85   Atom       -0.109114      0.145461      0.190779
    86   Atom       -0.013551     -0.006990     -0.138586
    87   Atom       -0.188223     -0.073716     -0.042968
    88   Atom        0.202442      0.041450     -0.029034
    89   Atom       -0.023219     -0.002129     -0.029917
    90   Atom       -0.050835      0.069983      0.210838
    91   Atom       -0.033036     -0.053868     -0.184812
    92   Atom       -0.163725     -0.013414     -0.038396
    93   Atom       -0.072943      0.106758      0.201539
    94   Atom        0.032376      0.083039     -0.169984
    95   Atom        0.203036      0.016008     -0.032064
    96   Atom       -0.176372     -0.035412     -0.082677
    97   Atom        0.187825     -0.017086      0.043378
    98   Atom       -0.201063      0.082394      0.115559
    99   Atom        0.110662      0.168674     -0.167439
   100   Atom       -0.054889      0.099354      0.208732
 --------------------------------------------------------


 ---------------------------------------------------------------------------------
              Nuclear Quadrupole Coupling Constant in Principal Axis System
 ---------------------------------------------------------------------------------

       Atom             a.u.   MegaHertz   Gauss  10(-4) cm-1        Axes


 ---------------------------------------------------------------------------------

 No NMR shielding tensors so no spin-rotation constants.
 Leave Link  601 at Mon May 27 21:21:41 2024, MaxMem= 13421772800 cpu:              20.4 elap:               0.7
 FitSet:  NAtFit=   100 NAtPot=   100 NAtFrz=     0 MDM=   104 TotChg=   0.00000
 Merz-Kollman atomic radii used.
 Atom Element Radius
    1     6    1.50
    2     6    1.50
    3     6    1.50
    4     6    1.50
    5     6    1.50
    6     6    1.50
    7     6    1.50
    8     6    1.50
    9     6    1.50
   10     6    1.50
   11     6    1.50
   12     6    1.50
   13     6    1.50
   14     6    1.50
   15     6    1.50
   16     6    1.50
   17     6    1.50
   18     6    1.50
   19     6    1.50
   20     6    1.50
   21     6    1.50
   22     6    1.50
   23     6    1.50
   24     6    1.50
   25     6    1.50
   26     6    1.50
   27     6    1.50
   28     6    1.50
   29     6    1.50
   30     6    1.50
   31     6    1.50
   32     6    1.50
   33     6    1.50
   34     6    1.50
   35     6    1.50
   36     6    1.50
   37     6    1.50
   38     6    1.50
   39     6    1.50
   40     6    1.50
   41     6    1.50
   42     6    1.50
   43     6    1.50
   44     6    1.50
   45     6    1.50
   46     6    1.50
   47     6    1.50
   48     6    1.50
   49     6    1.50
   50     6    1.50
   51     6    1.50
   52     6    1.50
   53     6    1.50
   54     6    1.50
   55     6    1.50
   56     6    1.50
   57     6    1.50
   58     6    1.50
   59     6    1.50
   60     6    1.50
   61     6    1.50
   62     6    1.50
   63     6    1.50
   64     6    1.50
   65     1    1.20
   66     1    1.20
   67     1    1.20
   68     1    1.20
   69     1    1.20
   70     1    1.20
   71     1    1.20
   72     1    1.20
   73     1    1.20
   74     1    1.20
   75     1    1.20
   76     1    1.20
   77     1    1.20
   78     1    1.20
   79     1    1.20
   80     1    1.20
   81     1    1.20
   82     1    1.20
   83     1    1.20
   84     1    1.20
   85     1    1.20
   86     1    1.20
   87     1    1.20
   88     1    1.20
   89     1    1.20
   90     1    1.20
   91     1    1.20
   92     1    1.20
   93     1    1.20
   94     1    1.20
   95     1    1.20
   96     1    1.20
   97     1    1.20
   98     1    1.20
   99     1    1.20
  100     1    1.20
 Generate VDW surfaces: Layer= 4 Dens= 6 Start= 1.400 Inc= 0.200

 **********************************************************************

            Electrostatic Properties Using The SCF Density.

 **********************************************************************

       Atomic Center    1 is at   5.421044  5.437406 -0.388833
       Atomic Center    2 is at   4.914461  4.773275  0.658057
       Atomic Center    3 is at   5.325267  3.469967  0.878681
       Atomic Center    4 is at   6.094535  2.796075 -0.062228
       Atomic Center    5 is at   6.090088  1.384505 -0.060046
       Atomic Center    6 is at   7.284579  0.683493 -0.218295
       Atomic Center    7 is at   8.526221  1.375740 -0.350126
       Atomic Center    8 is at   9.712806  0.706945 -0.468079
       Atomic Center    9 is at   9.715768 -0.655789 -0.461262
       Atomic Center   10 is at   8.515046 -1.348245 -0.306233
       Atomic Center   11 is at   7.266614 -0.741218 -0.168640
       Atomic Center   12 is at   6.041136 -1.448837 -0.026960
       Atomic Center   13 is at   6.022636 -2.831993  0.342495
       Atomic Center   14 is at   6.602634 -3.813759 -0.425713
       Atomic Center   15 is at   6.418712 -5.149834  0.003692
       Atomic Center   16 is at   5.847845 -5.380915  1.260393
       Atomic Center   17 is at   5.430174 -4.405464  2.033945
       Atomic Center   18 is at   5.427821 -3.096758  1.550123
       Atomic Center   19 is at   4.856311 -0.719500  0.027398
       Atomic Center   20 is at   3.537388 -1.138588 -0.011178
       Atomic Center   21 is at   2.843058 -2.403863 -0.040740
       Atomic Center   22 is at   1.479965 -2.439889 -0.059740
       Atomic Center   23 is at   0.662189 -1.279488  0.016856
       Atomic Center   24 is at  -0.721300 -1.236673 -0.040079
       Atomic Center   25 is at  -1.460261 -2.427483 -0.059650
       Atomic Center   26 is at  -2.895877 -2.403297 -0.067044
       Atomic Center   27 is at  -3.591778 -1.161257 -0.155951
       Atomic Center   28 is at  -4.882340 -0.694563 -0.170612
       Atomic Center   29 is at  -6.130731 -1.416288 -0.284526
       Atomic Center   30 is at  -6.131351 -2.773014 -0.488853
       Atomic Center   31 is at  -6.748956 -3.624074  0.516795
       Atomic Center   32 is at  -6.575653 -5.012887  0.504442
       Atomic Center   33 is at  -5.838606 -5.558331 -0.553886
       Atomic Center   34 is at  -5.279185 -4.730857 -1.531640
       Atomic Center   35 is at  -5.437800 -3.403688 -1.537048
       Atomic Center   36 is at  -7.339727 -0.688501 -0.167316
       Atomic Center   37 is at  -8.572607 -1.321969 -0.385039
       Atomic Center   38 is at  -9.726263 -0.558672 -0.334495
       Atomic Center   39 is at  -9.678706  0.776446  0.009841
       Atomic Center   40 is at  -8.508100  1.431703  0.208541
       Atomic Center   41 is at  -7.298874  0.717125  0.125151
       Atomic Center   42 is at  -6.050061  1.405204  0.117834
       Atomic Center   43 is at  -5.962256  2.835603  0.284087
       Atomic Center   44 is at  -6.092687  3.517726  1.534803
       Atomic Center   45 is at  -5.621110  4.847980  1.714703
       Atomic Center   46 is at  -5.322123  5.566414  0.564875
       Atomic Center   47 is at  -5.331945  4.936342 -0.692934
       Atomic Center   48 is at  -5.582008  3.545101 -0.830620
       Atomic Center   49 is at  -4.836727  0.698150 -0.055804
       Atomic Center   50 is at  -3.554357  1.101360  0.056889
       Atomic Center   51 is at  -2.894650  2.326659  0.334054
       Atomic Center   52 is at  -1.474180  2.377903  0.327063
       Atomic Center   53 is at  -0.735918  1.222045  0.147337
       Atomic Center   54 is at   0.669030  1.188108  0.025285
       Atomic Center   55 is at   1.397411  2.387929 -0.065605
       Atomic Center   56 is at   2.828306  2.309226 -0.207033
       Atomic Center   57 is at   3.510335  1.062146 -0.055133
       Atomic Center   58 is at   4.871870  0.658415  0.037242
       Atomic Center   59 is at   2.709459 -0.019504 -0.070221
       Atomic Center   60 is at   1.348400 -0.035626 -0.058402
       Atomic Center   61 is at  -1.379042 -0.023623  0.023236
       Atomic Center   62 is at  -2.813567 -0.055264 -0.023151
       Atomic Center   63 is at   6.567643  3.509035 -1.135474
       Atomic Center   64 is at   6.333284  4.897735 -1.317634
       Atomic Center   65 is at   5.163302  6.445211 -0.703698
       Atomic Center   66 is at   4.132142  5.294153  1.204690
       Atomic Center   67 is at   5.041384  3.010264  1.821799
       Atomic Center   68 is at   8.689287  2.430603 -0.557728
       Atomic Center   69 is at  10.632398  1.280021 -0.558756
       Atomic Center   70 is at  10.569155 -1.329467 -0.425967
       Atomic Center   71 is at   8.658037 -2.425592 -0.341486
       Atomic Center   72 is at   6.986920 -3.667296 -1.431733
       Atomic Center   73 is at   6.764350 -6.008787 -0.566058
       Atomic Center   74 is at   5.776908 -6.414413  1.589763
       Atomic Center   75 is at   5.040266 -4.570475  3.035592
       Atomic Center   76 is at   4.923815 -2.307727  2.101765
       Atomic Center   77 is at   3.380430 -3.347022 -0.094692
       Atomic Center   78 is at   1.077190 -3.448276 -0.102387
       Atomic Center   79 is at  -0.918919 -3.370149 -0.056203
       Atomic Center   80 is at  -3.393635 -3.358948  0.074206
       Atomic Center   81 is at  -7.291609 -3.197608  1.357086
       Atomic Center   82 is at  -6.885705 -5.542917  1.401074
       Atomic Center   83 is at  -5.591430 -6.615734 -0.496891
       Atomic Center   84 is at  -4.718638 -5.152042 -2.362672
       Atomic Center   85 is at  -4.992293 -2.773991 -2.302645
       Atomic Center   86 is at  -8.596652 -2.355859 -0.717607
       Atomic Center   87 is at -10.671456 -1.061819 -0.522746
       Atomic Center   88 is at -10.615639  1.314442  0.128817
       Atomic Center   89 is at  -8.437376  2.515873  0.261738
       Atomic Center   90 is at  -6.274842  2.916044  2.422404
       Atomic Center   91 is at  -5.473376  5.331269  2.676832
       Atomic Center   92 is at  -4.927766  6.574485  0.662970
       Atomic Center   93 is at  -5.035064  5.515527 -1.563353
       Atomic Center   94 is at  -5.371996  3.113752 -1.805859
       Atomic Center   95 is at  -3.455442  3.255216  0.404996
       Atomic Center   96 is at  -1.018791  3.342873  0.538808
       Atomic Center   97 is at   0.912349  3.354982 -0.175237
       Atomic Center   98 is at   3.456394  3.121075 -0.564663
       Atomic Center   99 is at   7.069769  2.974229 -1.937038
       Atomic Center  100 is at   6.576788  5.481837 -2.200674
      ESP Fit Center  101 is at   6.283244  6.223405  1.357254
[...]
 **** Fit       0.003189
 **** Fit       0.007469
 **** Fit       0.008524
 **** Fit       0.009301
 **** Fit       0.009810
 **** Fit       0.010055
 **** Fit       0.010036
 **** Fit       0.009750
 **** Fit       0.009190
 **** Fit       0.008348
 **** Fit       0.007211
 **** Fit       0.005761
 **** Fit       0.003972
 **** Fit       0.001807
 **** Fit       0.007310
 **** Fit       0.008362
 **** Fit       0.009144
 **** Fit       0.009665
 **** Fit       0.009929
 **** Fit       0.009936
 **** Fit       0.009683
 **** Fit       0.009164
 **** Fit       0.008371
 **** Fit       0.007291
 **** Fit       0.005907
 **** Fit       0.004195
 **** Fit       0.002123
 **** Fit       0.007186
 **** Fit       0.008285
 **** Fit       0.009078
 **** Fit       0.009584
 **** Fit       0.009811
 **** Fit       0.009761
 **** Fit       0.009433
 **** Fit       0.008821
 **** Fit       0.007913
 **** Fit       0.006696
 **** Fit       0.005147
 **** Fit       0.003238
 **** Fit       0.000931
 **** Fit       0.007131
 **** Fit       0.008290
 **** Fit       0.009079
 **** Fit       0.009536
 **** Fit       0.009677
 **** Fit       0.009511
 **** Fit       0.009035
 **** Fit       0.008242
 **** Fit       0.007118
 **** Fit       0.005643
 **** Fit       0.003789
 **** Fit       0.001513
 **** Fit       0.007264
 **** Fit       0.008422
 **** Fit       0.009155
 **** Fit       0.009521
 **** Fit       0.009544
 **** Fit       0.009235
 **** Fit       0.008592
 **** Fit       0.007607
 **** Fit       0.006262
 **** Fit       0.004529
 **** Fit       0.002371
 **** Fit       0.008937
 **** Fit       0.009487
 **** Fit       0.009614
 **** Fit       0.009347
 **** Fit       0.008689
 **** Fit       0.007632
 **** Fit       0.006156
 **** Fit       0.004228
 **** Fit       0.010024
 **** Fit       0.009769
 **** Fit       0.009088
 **** Fit       0.007971
 **** Fit       0.006395
 **** Fit       0.008363
 **** Fit       0.009705
 **** Fit       0.005348
 **** Fit       0.006737
 **** Fit       0.007931
 **** Fit       0.008859
 **** Fit       0.009421
 **** Fit       0.009506
 **** Fit       0.009027
 **** Fit       0.007948
 **** Fit       0.006298
 **** Fit       0.004161
 **** Fit       0.002725
 **** Fit       0.004371
 **** Fit       0.005770
 **** Fit       0.006945
 **** Fit       0.007882
 **** Fit       0.008535
 **** Fit       0.008840
 **** Fit       0.008729
 **** Fit       0.008159
 **** Fit       0.007116
 **** Fit       0.005633
 **** Fit       0.003774
 **** Fit       0.001629
 **** Fit       0.003509
 **** Fit       0.004959
 **** Fit       0.006188
 **** Fit       0.007179
 **** Fit       0.007909
 **** Fit       0.008338
 **** Fit       0.008418
 **** Fit       0.008110
 **** Fit       0.007394
 **** Fit       0.006282
 **** Fit       0.004814
 **** Fit       0.003058
 **** Fit       0.001100
 **** Fit       0.001890
 **** Fit       0.004317
 **** Fit       0.005507
 **** Fit       0.006530
 **** Fit       0.007331
 **** Fit       0.007871
 **** Fit       0.008111
 **** Fit       0.008017
 **** Fit       0.007568
 **** Fit       0.006763
 **** Fit       0.005628
 **** Fit       0.004216
 **** Fit       0.002598
 **** Fit       0.000862
 **** Fit      -0.000899
 **** Fit       0.002021
 **** Fit       0.003076
 **** Fit       0.005087
 **** Fit       0.006051
 **** Fit       0.006884
 **** Fit       0.007488
 **** Fit       0.007799
 **** Fit       0.007776
 **** Fit       0.007392
 **** Fit       0.006652
 **** Fit       0.005587
 **** Fit       0.004262
 **** Fit       0.002769
 **** Fit       0.001219
 **** Fit      -0.000257
 **** Fit       0.003870
 **** Fit       0.003605
 **** Fit       0.004169
 **** Fit       0.005742
 **** Fit       0.006464
 **** Fit       0.007079
 **** Fit       0.007452
 **** Fit       0.007504
 **** Fit       0.007195
 **** Fit       0.006525
 **** Fit       0.005540
 **** Fit       0.004324
 **** Fit       0.003006
 **** Fit       0.001744
 **** Fit       0.000738
 **** Fit       0.005640
 **** Fit       0.004976
 **** Fit       0.005136
 **** Fit       0.006211
 **** Fit       0.006718
 **** Fit       0.007096
 **** Fit       0.007168
 **** Fit       0.006851
 **** Fit       0.006149
 **** Fit       0.005150
 **** Fit       0.004023
 **** Fit       0.003008
 **** Fit       0.002404
 **** Fit       0.002546
 **** Fit       0.003674
 **** Fit       0.006672
 **** Fit       0.005971
 **** Fit       0.005855
 **** Fit       0.006435
 **** Fit       0.006741
 **** Fit       0.006775
 **** Fit       0.006331
 **** Fit       0.005473
 **** Fit       0.004526
 **** Fit       0.003990
 **** Fit       0.004325
 **** Fit       0.005437
 **** Fit       0.006338
 **** Fit       0.006390
 **** Fit       0.006249
 **** Fit       0.006361
 **** Fit       0.006358
 **** Fit       0.005732
 **** Fit       0.005168
 **** Fit       0.005612
 **** Fit       0.006158
 **** Fit       0.005950
 **** Fit      -0.005956
 **** Fit      -0.003451
 **** Fit      -0.003015
 **** Fit      -0.000940
 **** Fit       0.001416
 **** Fit      -0.008996
 **** Fit      -0.009294
 **** Fit      -0.009380
 **** Fit      -0.009274
 **** Fit      -0.009025
 **** Fit      -0.008640
 **** Fit      -0.007205
 **** Fit      -0.006975
 **** Fit      -0.006634
 **** Fit      -0.005922
 **** Fit      -0.004712
 **** Fit      -0.000740
 **** Fit       0.001092
 **** Fit       0.003194
 **** Fit       0.005525
 **** Fit      -0.005512
 **** Fit      -0.006004
 **** Fit      -0.006325
 **** Fit      -0.006435
 **** Fit      -0.006335
 **** Fit      -0.006060
 **** Fit      -0.005664
 **** Fit      -0.005210
 **** Fit      -0.004781
 **** Fit      -0.004404
 **** Fit      -0.003971
 **** Fit      -0.003291
 **** Fit      -0.002223
 **** Fit       0.000923
 **** Fit       0.002505
 **** Fit       0.004252
 **** Fit       0.005963
 **** Fit       0.004074
 **** Fit       0.001727
 **** Fit      -0.000222
 **** Fit      -0.001642
 **** Fit      -0.002628
 **** Fit      -0.003306
 **** Fit      -0.003742
 **** Fit      -0.003945
 **** Fit      -0.003916
 **** Fit      -0.003690
 **** Fit      -0.003329
 **** Fit      -0.002908
 **** Fit      -0.002473
 **** Fit      -0.001988
 **** Fit      -0.001329
 **** Fit      -0.000373
 **** Fit       0.002029
 **** Fit       0.003398
 **** Fit       0.004738
 **** Fit       0.005653
 **** Fit       0.005659
 **** Fit       0.004587
 **** Fit       0.002875
 **** Fit       0.001168
 **** Fit      -0.000175
 **** Fit      -0.001098
 **** Fit      -0.001653
 **** Fit      -0.001887
 **** Fit      -0.001835
 **** Fit      -0.001563
 **** Fit      -0.001154
 **** Fit      -0.000653
 **** Fit      -0.000015
 **** Fit       0.000863
 **** Fit       0.002620
 **** Fit       0.003788
 **** Fit       0.004502
 **** Fit       0.004204
 **** Fit       0.002969
 **** Fit       0.001527
 **** Fit       0.000452
 **** Fit      -0.000102
 **** Fit      -0.000173
 **** Fit       0.000129
 **** Fit       0.000695
 **** Fit       0.001520
 **** Fit       0.002730
 **** Fit       0.003455
 **** Fit       0.002807
 **** Fit       0.001623
 **** Fit       0.001208
 **** Fit       0.001696
 **** Fit       0.002390
 **** Fit       0.004896
 **** Fit       0.003907
 **** Fit      -0.001435
 **** Fit       0.000234
 **** Fit       0.000281
 **** Fit      -0.000951
 **** Fit       0.001491
 **** Fit       0.002832
 **** Fit       0.003099
 **** Fit       0.002395
 **** Fit       0.000740
 **** Fit       0.002336
 **** Fit       0.004338
 **** Fit       0.005302
 **** Fit       0.005436
 **** Fit       0.004887
 **** Fit       0.003685
 **** Fit       0.001772
 **** Fit       0.005726
 **** Fit       0.007078
 **** Fit       0.007534
 **** Fit       0.007371
 **** Fit       0.006722
 **** Fit       0.005591
 **** Fit       0.003902
 **** Fit       0.008818
 **** Fit       0.009399
 **** Fit       0.009356
 **** Fit       0.008920
 **** Fit       0.008168
 **** Fit       0.007071
 **** Fit       0.005536
 **** Fit       0.003499
 **** Fit       0.011386
 **** Fit       0.011075
 **** Fit       0.010479
 **** Fit       0.009684
 **** Fit       0.008664
 **** Fit       0.007311
 **** Fit       0.005499
 **** Fit       0.012752
 **** Fit       0.011840
 **** Fit       0.010890
 **** Fit       0.009850
 **** Fit       0.008611
 **** Fit       0.007016
 **** Fit       0.004966
 **** Fit       0.012796
 **** Fit       0.011571
 **** Fit       0.010390
 **** Fit       0.009107
 **** Fit       0.007548
 **** Fit       0.005560
 **** Fit       0.012782
 **** Fit       0.011285
 **** Fit       0.009895
 **** Fit       0.008406
 **** Fit       0.006608
 **** Fit       0.011728
 **** Fit       0.010066
 **** Fit       0.008471
 **** Fit       0.006693
 **** Fit       0.004537
 **** Fit       0.009957
 **** Fit       0.008214
 **** Fit       0.006435
 **** Fit       0.004390
 **** Fit       0.008571
 **** Fit       0.006641
 **** Fit       0.004648
 **** Fit       0.006546
 **** Fit       0.004535
 **** Fit       0.006706
 **** Fit       0.008038
 **** Fit       0.008023
 **** Fit       0.008910
 **** Fit       0.009928
 **** Fit       0.011305
 **** Fit       0.009834
 **** Fit       0.010356
 **** Fit       0.011137
 **** Fit       0.012290
 **** Fit       0.010796
 **** Fit       0.011356
 **** Fit       0.012177
 **** Fit       0.013371
 **** Fit       0.010559
 **** Fit       0.011122
 **** Fit       0.011767
 **** Fit       0.012573
 **** Fit       0.013653
 **** Fit       0.009777
 **** Fit       0.010531
 **** Fit       0.011183
 **** Fit       0.011831
 **** Fit       0.012541
 **** Fit       0.007782
 **** Fit       0.009006
 **** Fit       0.009871
 **** Fit       0.010534
 **** Fit       0.011075
 **** Fit       0.011521
 **** Fit       0.005566
 **** Fit       0.007117
 **** Fit       0.008276
 **** Fit       0.009086
 **** Fit       0.009628
 **** Fit       0.009925
 **** Fit       0.009923
 **** Fit       0.004935
 **** Fit       0.006286
 **** Fit       0.007287
 **** Fit       0.007928
 **** Fit       0.008216
 **** Fit       0.008102
 **** Fit       0.007444
 **** Fit       0.003010
 **** Fit       0.004445
 **** Fit       0.005532
 **** Fit       0.006168
 **** Fit       0.006311
 **** Fit       0.005867
 **** Fit       0.004651
 **** Fit       0.002266
 **** Fit       0.003464
 **** Fit       0.004096
 **** Fit       0.004074
 **** Fit       0.003281
 **** Fit       0.001553
 **** Fit       0.001263
 **** Fit       0.001730
 **** Fit       0.001236
 **** Fit      -0.000326
 **** Fit      -0.002940
 **** Fit      -0.001123
 **** Fit      -0.001401
 **** Fit       0.003412
 **** Fit       0.000946
 **** Fit      -0.001729
 **** Fit      -0.000606
 **** Fit      -0.002856
 **** Fit      -0.002514
 **** Fit      -0.006328
 **** Fit      -0.004722
 **** Fit      -0.004287
 **** Fit      -0.007829
 **** Fit      -0.006293
 **** Fit      -0.005976
 **** Fit      -0.009462
 **** Fit      -0.008038
 **** Fit       0.005017
 **** Fit       0.005218
 **** Fit       0.003407
 **** Fit       0.004642
 **** Fit       0.005300
 **** Fit       0.005827
 **** Fit      -0.009335
 **** Fit      -0.009057
 **** Fit      -0.008824
 **** Fit       0.001336
 **** Fit       0.003435
 **** Fit       0.004687
 **** Fit       0.005600
 **** Fit       0.006553
 **** Fit      -0.007013
 **** Fit      -0.006665
 **** Fit      -0.006294
 **** Fit      -0.005936
 **** Fit      -0.005552
 **** Fit      -0.005002
 **** Fit      -0.004055
 **** Fit      -0.002513
 **** Fit      -0.000464
 **** Fit       0.001668
 **** Fit       0.003594
 **** Fit       0.004806
 **** Fit       0.005829
 **** Fit       0.006926
 **** Fit      -0.005034
 **** Fit      -0.004915
 **** Fit      -0.004604
 **** Fit      -0.004178
 **** Fit      -0.003683
 **** Fit      -0.003090
 **** Fit      -0.002282
 **** Fit      -0.001122
 **** Fit       0.000404
 **** Fit       0.002079
 **** Fit       0.003672
 **** Fit       0.004840
 **** Fit       0.005835
 **** Fit       0.006703
 **** Fit      -0.002279
 **** Fit      -0.002803
 **** Fit      -0.002824
 **** Fit      -0.002518
 **** Fit      -0.001998
 **** Fit      -0.001295
 **** Fit      -0.000354
 **** Fit       0.000876
 **** Fit       0.002297
 **** Fit       0.003545
 **** Fit       0.004646
 **** Fit       0.005276
 **** Fit       0.004975
 **** Fit       0.003353
 **** Fit       0.001202
 **** Fit      -0.000318
 **** Fit      -0.000901
 **** Fit      -0.000757
 **** Fit      -0.000126
 **** Fit       0.000885
 **** Fit       0.002191
 **** Fit       0.003131
 **** Fit       0.003835
 **** Fit       0.002866
 **** Fit       0.001233
 **** Fit       0.000858
 **** Fit       0.001752
 **** Fit       0.002374
 **** Fit       0.003016
 **** Fit       0.004448
 **** Fit       0.006097
 **** Fit       0.008045
 **** Fit       0.002819
 **** Fit       0.003715
 **** Fit       0.004744
 **** Fit       0.005896
 **** Fit       0.007176
 **** Fit       0.008603
 **** Fit       0.010196
 **** Fit       0.003631
 **** Fit       0.004073
 **** Fit       0.004712
 **** Fit       0.005496
 **** Fit       0.006390
 **** Fit       0.007370
 **** Fit       0.008423
 **** Fit       0.009532
 **** Fit       0.010663
 **** Fit       0.011739
 **** Fit       0.005094
 **** Fit       0.005271
 **** Fit       0.005686
 **** Fit       0.006273
 **** Fit       0.006978
 **** Fit       0.007763
 **** Fit       0.008592
 **** Fit       0.009433
 **** Fit       0.010237
 **** Fit       0.010930
 **** Fit       0.011381
 **** Fit       0.011394
 **** Fit       0.010727
 **** Fit       0.006324
 **** Fit       0.006534
 **** Fit       0.006933
 **** Fit       0.007467
 **** Fit       0.008083
 **** Fit       0.008739
 **** Fit       0.009390
 **** Fit       0.009984
 **** Fit       0.010452
 **** Fit       0.010694
 **** Fit       0.010577
 **** Fit       0.009948
 **** Fit       0.008687
 **** Fit       0.006779
 **** Fit       0.006754
 **** Fit       0.006371
 **** Fit       0.007206
 **** Fit       0.007480
 **** Fit       0.007904
 **** Fit       0.008422
 **** Fit       0.008976
 **** Fit       0.009507
 **** Fit       0.009945
 **** Fit       0.010206
 **** Fit       0.010181
 **** Fit       0.009746
 **** Fit       0.008790
 **** Fit       0.007274
 **** Fit       0.005279
 **** Fit       0.003009
 **** Fit       0.007305
 **** Fit       0.007134
 **** Fit       0.007774
 **** Fit       0.008115
 **** Fit       0.008549
 **** Fit       0.009017
 **** Fit       0.009448
 **** Fit       0.009758
 **** Fit       0.009846
 **** Fit       0.009601
 **** Fit       0.008916
 **** Fit       0.007738
 **** Fit       0.006117
 **** Fit       0.004235
 **** Fit       0.002379
 **** Fit       0.007340
 **** Fit       0.007459
 **** Fit       0.007561
 **** Fit       0.008054
 **** Fit       0.008471
 **** Fit       0.008899
 **** Fit       0.009257
 **** Fit       0.009431
 **** Fit       0.009289
 **** Fit       0.008711
 **** Fit       0.007642
 **** Fit       0.006171
 **** Fit       0.004565
 **** Fit       0.003224
 **** Fit       0.002566
 **** Fit       0.002859
 **** Fit       0.004003
 **** Fit       0.005450
 **** Fit       0.006587
 **** Fit       0.007256
 **** Fit       0.007675
 **** Fit       0.008063
 **** Fit       0.008555
 **** Fit       0.008874
 **** Fit       0.008834
 **** Fit       0.008242
 **** Fit       0.007080
 **** Fit       0.005681
 **** Fit       0.004690
 **** Fit       0.004665
 **** Fit       0.005542
 **** Fit       0.006634
 **** Fit       0.007459
 **** Fit       0.007815
 **** Fit       0.008232
 **** Fit       0.007777
 **** Fit       0.006608
 **** Fit       0.006143
 **** Fit       0.006921
 **** Fit       0.007325
 -----------------------------------------------------------------
 Leave Link  602 at Mon May 27 21:21:43 2024, MaxMem= 13421772800 cpu:              42.3 elap:               1.2

 Test job not archived.
 1\1\GINC-COMPUTE50\SP\RwB97XD\6-31+G\C64H36\ZL3289\27-May-2024\0\\# wb
 97xd/6-31+g iop(6/33=2) iop(6/42=6) pop=mk iop(6/50=1)\\DBP11\\0,1\C,0
 ,23.180223,31.179787,43.942154\C,0,24.370262,31.006516,43.352699\C,0,2
 4.4597,30.132641,42.282936\C,0,23.39286,29.309063,41.944138\C,0,23.648
 832,28.13155,41.208954\C,0,22.815725,27.776596,40.149139\C,0,21.718929
 ,28.608814,39.771366\C,0,20.913086,28.298367,38.711449\C,0,21.158237,2
 7.165756,37.994377\C,0,22.241695,26.355202,38.332584\C,0,23.115908,26.
 607815,39.389908\C,0,24.210623,25.771736,39.743694\C,0,24.721022,24.79
 3549,38.831223\C,0,23.961061,23.748798,38.360733\C,0,24.621574,22.7966
 23,37.548084\C,0,25.922798,23.070442,37.11171\C,0,26.571943,24.154255,
 37.469894\C,0,26.011959,25.009167,38.419811\C,0,24.961235,26.1021,40.8
 68923\C,0,25.948662,25.394707,41.533199\C,0,26.648191,24.146416,41.342
 621\C,0,27.61216,23.756748,42.225006\C,0,28.039806,24.551868,43.323212
 \C,0,28.978491,24.204208,44.280876\C,0,29.703323,23.011436,44.152863\C
 ,0,30.716089,22.659016,45.107712\C,0,30.930008,23.47279,46.259605\C,0,
 31.755779,23.523216,47.354652\C,0,32.695698,22.544746,47.85614\C,0,32.
 798904,21.313183,47.260273\C,0,34.073254,20.935326,46.668392\C,0,34.18
 8751,19.815388,45.836895\C,0,33.042221,19.033367,45.650566\C,0,31.8324
 43,19.390209,46.252869\C,0,31.705399,20.453835,47.052322\C,0,33.506489
 ,22.898277,48.961906\C,0,34.349136,21.946751,49.556229\C,0,35.06892,22
 .311592,50.680908\C,0,35.03125,23.605522,51.158081\C,0,34.216137,24.54
 9934,50.626255\C,0,33.425804,24.223984,49.508698\C,0,32.409225,25.1153
 34,49.055817\C,0,32.204967,26.412178,49.654037\C,0,33.025963,27.55801,
 49.409847\C,0,32.575577,28.876617,49.697514\C,0,31.453745,28.991592,50
 .507401\C,0,30.718517,27.849667,50.874306\C,0,31.050728,26.557724,50.3
 86906\C,0,31.553324,24.752674,47.988968\C,0,30.645094,25.473598,47.299
 667\C,0,30.145525,26.80048,47.356289\C,0,29.12034,27.204906,46.458599\
 C,0,28.678442,26.342808,45.471252\C,0,27.601316,26.616039,44.602303\C,
 0,26.807379,27.759701,44.802479\C,0,25.706589,27.992805,43.903824\C,0,
 25.546234,27.202003,42.723839\C,0,24.711512,27.260265,41.572685\C,0,26
 .298756,26.086559,42.690815\C,0,27.278669,25.729057,43.565369\C,0,29.2
 73804,25.077896,45.309265\C,0,30.269247,24.66016,46.25563\C,0,22.20005
 6,29.501598,42.595406\C,0,21.99592,30.510822,43.573357\H,0,22.970407,3
 1.800522,44.80928\H,0,25.205814,31.506691,43.83625\H,0,25.3843,30.1364
 86,41.711544\H,0,21.274,29.429306,40.329269\H,0,20.094749,28.968491,38
 .459366\H,0,20.694584,26.840385,37.065659\H,0,22.307762,25.476101,37.6
 96045\H,0,22.978022,23.478779,38.737465\H,0,24.141409,21.89093,37.1860
 85\H,0,26.381046,22.350876,36.438011\H,0,27.559317,24.405224,37.08955\
 H,0,26.605024,25.806995,38.858727\H,0,26.396883,23.471485,40.528656\H,
 0,28.049488,22.791286,41.985176\H,0,29.488091,22.365948,43.305099\H,0,
 31.336569,21.802876,44.856689\H,0,34.95446,21.561661,46.78508\H,0,35.1
 12926,19.731159,45.27137\H,0,33.093224,18.242699,44.905792\H,0,30.9438
 46,18.777397,46.122169\H,0,30.75605,20.719963,47.509537\H,0,34.324429,
 20.915871,49.214493\H,0,35.703564,21.557095,51.139107\H,0,35.683334,23
 .871532,51.986008\H,0,34.008888,25.498413,51.116859\H,0,33.865704,27.4
 42478,48.728287\H,0,33.037903,29.787254,49.32592\H,0,31.060131,29.9816
 86,50.722176\H,0,29.812773,27.984306,51.459732\H,0,30.31555,25.775963,
 50.559013\H,0,30.427647,27.465504,48.168625\H,0,28.768148,28.230198,46
 .548698\H,0,26.906071,28.388176,45.684395\H,0,24.871941,28.656895,44.1
 13205\H,0,21.393299,28.793377,42.427418\H,0,21.118729,30.629684,44.203
 148\\Version=ES64L-G16RevB.01\State=1-A\HF=-2459.0995983\RMSD=9.369e-0
 9\Dipole=-0.2366762,-0.0108068,-0.2103173\Quadrupole=-0.2816301,6.1120
 964,-5.8304663,-3.5425516,-2.0856963,20.6906163\PG=C01 [X(C64H36)]\\@


0EVERYBODY IS IGNORANT, ONLY ON DIFFERENT SUBJECTS.
0          WILL ROGERS
 Job cpu time:       0 days  3 hours 53 minutes 31.6 seconds.
 Elapsed time:       0 days  0 hours  6 minutes  4.5 seconds.
 File lengths (MBytes):  RWF=    424 Int=      0 D2E=      0 Chk=     56 Scr=      1
 Normal termination of Gaussian 16 at Mon May 27 21:21:44 2024.
