You are running Q-Chem version: 6.0.2

#
# job setting
#
local host:  compute48
current dir: /gpfsnyu/xspace/projects/PCT-example/DBP-C70/results/DBP-C70_conf11/QC/mulliken
input file:  DBP-C70_conf11.inp
output file: 
nprocs     : 0
nthreads   : 40
#
# qchem installation setting
#
QC:          /gpfsnyu/xspace/sungroup/software/qchem6cpu
QCAUX:       /gpfsnyu/xspace/sungroup/software/qchem6cpu/qcaux
QCPROG:      /gpfsnyu/xspace/sungroup/software/qchem6cpu/exe/qcprog.exe_s
QCPROG_S:    /gpfsnyu/xspace/sungroup/software/qchem6cpu/exe/qcprog.exe_s
PARALLEL:    -DSERIAL
QCMPI:       seq
#
# qchem directory setting
#
qcrun:       qchem379635
QCSCRATCH:   /tmp/xs13_9697723
QCLOCALSCR:  
QCTMPDIR:    /tmp/xs13_9697723
QCFILEPREF:  /tmp/xs13_9697723/qchem379635
QCSAVEDIR:   
workdirs:    /tmp/xs13_9697723/qchem379635
workdir0:    /tmp/xs13_9697723/qchem379635
partmpdirs =  
#
# parallel setting
#
QCRSH:           ssh
QCMPI:           seq
QCMPIRUN:        
QCMACHINEFILE:   /tmp/xs13_9697723/qchem379635/hostfile

#
# env setting
#
exported envs:   QC QCAUX QCSCRATCH QCRUNNAME QCFILEPREF QCPROG QCPROG_S GUIFILE

Running Job 1 of 1 DBP-C70_conf11.inp
qchem DBP-C70_conf11.inp_379635.0 /tmp/xs13_9697723/qchem379635/ 0
/gpfsnyu/xspace/sungroup/software/qchem6cpu/exe/qcprog.exe_s DBP-C70_conf11.inp_379635.0 /tmp/xs13_9697723/qchem379635/
                  Welcome to Q-Chem
     A Quantum Leap Into The Future Of Chemistry


 Q-Chem 6.0, Q-Chem, Inc., Pleasanton, CA (2022)

 License issued to: SRG Xiang Sun, NYU Shanghai

 E. Epifanovsky,  A. T. B. Gilbert,  Xintian Feng,  Joonho Lee,  Yuezhi Mao,  
 N. Mardirossian,  P. Pokhilko,  A. White,  M. Wormit,  M. P. Coons,  
 A. L. Dempwolff,  Zhengting Gan,  D. Hait,  P. R. Horn,  L. D. Jacobson,  
 I. Kaliman,  J. Kussmann,  A. W. Lange,  Ka Un Lao,  D. S. Levine,  Jie Liu,  
 S. C. McKenzie,  A. F. Morrison,  K. Nanda,  F. Plasser,  D. R. Rehn,  
 M. L. Vidal,  Zhi-Qiang You,  Ying Zhu,  B. Alam,  B. Albrecht,  
 A. Aldossary,  E. Alguire,  J. H. Andersen,  V. Athavale,  D. Barton,  
 K. Begam,  A. Behn,  N. Bellonzi,  Y. A. Bernard,  E. J. Berquist,  
 H. Burton,  A. Carreras,  K. Carter-Fenk,  Romit Chakraborty,  
 Chandrima Chakravarty,  Junhan Chen,  A. D. Chien,  K. D. Closser,  
 V. Cofer-Shabica,  L. Cunha,  S. Dasgupta,  Jia Deng,  M. de Wergifosse,  
 M. Diedenhofen,  Hainam Do,  S. Ehlert,  Po-Tung Fang,  S. Fatehi,  
 Qingguo Feng,  T. Friedhoff,  B. Ganoe,  J. Gayvert,  Qinghui Ge,  
 G. Gidofalvi,  M. Goldey,  J. Gomes,  C. Gonzalez-Espinoza,  S. Gulania,  
 A. Gunina,  J. A. Gyamfi,  M. W. D. Hanson-Heine,  P. H. P. Harbach,  
 A. W. Hauser,  M. F. Herbst,  M. Hernandez Vera,  M. Hodecker,  
 Z. C. Holden,  S. Houck,  Xunkun Huang,  Kerwin Hui,  B. C. Huynh,  
 K. Ikeda,  M. Ivanov,  Hyunjun Ji,  Zuxin Jin,  Hanjie Jiang,  B. Kaduk,  
 S. Kaehler,  R. Kang,  K. Khistyaev,  Jaehoon Kim,  Yongbin Kim,  
 P. Klunzinger,  Z. Koczor-Benda,  Joong Hoon Koh,  D. Kosenkov,  
 Saikiran Kotaru,  L. Koulias,  T. Kowalczyk,  C. M. Krauter,  K. Kue,  
 A. Kunitsa,  T. Kus,  A. Landau,  K. V. Lawler,  D. Lefrancois,  S. Lehtola,  
 Rain Li,  Shaozhi Li,  Yi-Pei Li,  Jiashu Liang,  M. Liebenthal,  
 Hung-Hsuan Lin,  You-Sheng Lin,  Fenglai Liu,  Kuan-Yu Liu,  
 M. Loipersberger,  A. Luenser,  C. Malbon,  A. Manjanath,  P. Manohar,  
 E. Mansoor,  S. F. Manzer,  Shan-Ping Mao,  A. V. Marenich,  T. Markovich,  
 S. Mason,  F. Matz,  S. A. Maurer,  P. F. McLaughlin,  M. F. S. J. Menger,  
 J.-M. Mewes,  S. A. Mewes,  P. Morgante,  Mohammad Mostafanejad,  
 J. W. Mullinax,  K. J. Oosterbaan,  G. Paran,  V. Parravicini,  
 Alexander C. Paul,  Suranjan K. Paul,  F. Pavosevic,  Zheng Pei,  S. Prager,  
 E. I. Proynov,  E. Ramos,  B. Rana,  A. E. Rask,  A. Rettig,  R. M. Richard,  
 F. Rob,  E. Rossomme,  T. Scheele,  M. Scheurer,  M. Schneider,  
 P. E. Schneider,  N. Sergueev,  S. M. Sharada,  Hengyuan Shen,  
 W. Skomorowski,  D. W. Small,  C. J. Stein,  Yingli Su,  Yu-Chuan Su,  
 E. J. Sundstrom,  Zhen Tao,  J. Thirman,  Hung-Yi Tsai,  T. Tsuchimochi,  
 N. M. Tubman,  C. Utku,  S. P. Veccham,  O. Vydrov,  J. Wenzel,  
 Jonathan Wong,  J. Witte,  A. Yamada,  Chou-Hsun Yang,  Kun Yao,  
 S. Yeganeh,  S. R. Yost,  A. Zech,  F. Zeller,  Igor Ying Zhang,  
 Xing Zhang,  Yu Zhang,  D. Zuev,  A. Aspuru-Guzik,  A. T. Bell,  
 N. A. Besley,  K. B. Bravaya,  B. R. Brooks,  D. Casanova,  Jeng-Da Chai,  
 Hsing-Ta Chen,  S. Coriani,  C. J. Cramer,  A. E. DePrince, III,  
 R. A. DiStasio Jr.,  A. Dreuw,  B. D. Dunietz,  T. R. Furlani,  
 W. A. Goddard III,  S. Grimme,  S. Hammes-Schiffer,  T. Head-Gordon,  
 W. J. Hehre,  Chao-Ping Hsu,  T.-C. Jagau,  Yousung Jung,  A. Klamt,  
 Jing Kong,  D. S. Lambrecht,  Xiangyuan Li,  WanZhen Liang,  N. J. Mayhall,  
 C. W. McCurdy,  J. B. Neaton,  T. Neudecker,  C. Ochsenfeld,  
 J. A. Parkhill,  R. Peverati,  V. A. Rassolov,  Haisheng Ren,  Yihan Shao,  
 L. V. Slipchenko,  R. P. Steele,  J. E. Subotnik,  A. J. W. Thom,  
 A. Tkatchenko,  D. G. Truhlar,  T. Van Voorhis,  Fan Wang,  
 T. A. Wesolowski,  K. B. Whaley,  H. L. Woodcock III,  P. M. Zimmerman,  
 S. Faraji,  P. M. W. Gill,  M. Head-Gordon,  J. M. Herbert,  A. I. Krylov

 Contributors to earlier versions of Q-Chem not listed above: 
 R. D. Adamson,  B. Austin,  R. Baer,  J. Baker,  G. J. O. Beran,  
 K. Brandhorst,  S. T. Brown,  E. F. C. Byrd,  Arup K. Chakraborty,  
 G. K. L. Chan,  Chun-Min Chang,  Yunqing Chen,  C.-L. Cheng,  
 Siu Hung Chien,  D. M. Chipman,  D. L. Crittenden,  H. Dachsel,  
 R. J. Doerksen,  A. D. Dutoi,  R. G. Edgar,  J. Fosso-Tande,  
 L. Fusti-Molnar,  D. Ghosh,  A. Ghysels,  A. Golubeva-Zadorozhnaya,  
 J. Gonthier,  M. S. Gordon,  S. R. Gwaltney,  G. Hawkins,  J. E. Herr,  
 A. Heyden,  S. Hirata,  E. G. Hohenstein,  G. Kedziora,  F. J. Keil,  
 C. Kelley,  Jihan Kim,  R. A. King,  R. Z. Khaliullin,  P. P. Korambath,  
 W. Kurlancheek,  A. Laurent,  A. M. Lee,  M. S. Lee,  S. V. Levchenko,  
 Ching Yeh Lin,  D. Liotard,  E. Livshits,  R. C. Lochan,  I. Lotan,  
 L. A. Martinez-Martinez,  P. E. Maslen,  N. Nair,  D. P. O'Neill,  
 D. Neuhauser,  E. Neuscamman,  C. M. Oana,  R. Olivares-Amaya,  R. Olson,  
 T. M. Perrine,  B. Peters,  P. A. Pieniazek,  A. Prociuk,  Y. M. Rhee,  
 J. Ritchie,  M. A. Rohrdanz,  E. Rosta,  N. J. Russ,  H. F. Schaefer III,  
 M. W. Schmidt,  N. E. Schultz,  S. Sharma,  N. Shenvi,  C. D. Sherrill,  
 A. C. Simmonett,  A. Sodt,  T. Stein,  D. Stuck,  K. S. Thanthiriwatte,  
 V. Vanovschi,  L. Vogt,  Tao Wang,  A. Warshel,  M. A. Watson,  
 C. F. Williams,  Q. Wu,  X. Xu,  Jun Yang,  W. Zhang,  Yan Zhao

   Please cite Q-Chem as follows:
  "Software for the frontiers of quantum chemistry:
   An overview of developments in the Q-Chem 5 package"
   J. Chem. Phys. 155, 084801 (2021)
   https://doi.org/10.1063/5.0055522 (open access)

 Q-Chem 6.0.2 for Intel X86 EM64T Linux

 Parts of Q-Chem use Armadillo 9.900.5 (Nocturnal Misbehaviour).
 http://arma.sourceforge.net/

 Q-Chem begins on Thu Jun 20 23:49:53 2024  

 Host: 
0

     Scratch files written to /tmp/xs13_9697723/qchem379635//
 Dec722 |scratch|qcdevops|jenkins|workspace|build_RNUM 9119   
 Processing $rem in /gpfsnyu/xspace/sungroup/software/qchem6cpu/config/preferences:
 Processing $rem in /gpfsnyu/home/xs13/.qchemrc:

 Checking the input file for inconsistencies... 	...done.

--------------------------------------------------------------
User input:
--------------------------------------------------------------
$molecule
read                  DBP-C70_conf11.txt
$end

$rem
JOBTYPE               sp        ! single point charge calculation
METHOD                wB97XD
BASIS                 SV
SYM_IGNORE            TRUE      !
ideriv                0         !
! OMEGA                 114514       ! geometric parameter tuned for geometry
MAX_SCF_CYCLES        5000      !
separate_jk           TRUE      !
derscreen             FALSE     !
purecart              2111      !
scf_convergence       8         ! for SP, default is 5 ; for opt/freq, default is 8
CIS_DYNAMIC_MEM       True      ! using dynamic memory for large TDDFT calculation
MEM_STATIC            160000     ! static memory for storing data.
MEM_TOTAL             180000    !
max_cis_cycles        500000    !
CIS_N_ROOTS           25        ! number of excited states
CIS_SINGLETS          true      ! compute singlet excited states, default is true
CIS_TRIPLETS          false     ! compute triplet excited states, default is true
MAX_CIS_SUBSPACE      15000
RPA                   false  ! false: TDA-DFT, true: TDA- and TDDFT , 2: TDDFT
sts_fcd               true      ! compute electronic couplings with FCD method
sts_donor             71-170    ! donor atom index
sts_acceptor          1-70      ! acceptor atom index
POP_MULLIKEN          -1        ! get Mulliken Charge for ground and excited states
$end

--------------------------------------------------------------
 ----------------------------------------------------------------
             Standard Nuclear Orientation (Angstroms)
    I     Atom           X                Y                Z
 ----------------------------------------------------------------
    1      C      42.9625210000    25.4041310000    38.9978070000
    2      C      43.5695110000    24.2315980000    38.6269380000
    3      C      42.5992850000    23.2669070000    38.7938000000
    4      C      41.4103660000    23.8587070000    39.2239110000
    5      C      41.6467090000    25.2262730000    39.3359150000
    6      C      44.5002250000    24.1326310000    37.6233600000
    7      C      44.4736370000    23.1163010000    36.6820980000
    8      C      43.4608310000    22.1764700000    36.8131260000
    9      C      42.5703620000    22.1945930000    37.8548970000
   10      C      41.3964540000    21.7360020000    37.3327140000
   11      C      40.1685100000    22.3271660000    37.7374880000
   12      C      40.1935080000    23.4061910000    38.6496240000
   13      C      39.2538570000    24.3697320000    38.3151400000
   14      C      39.5391540000    25.7126080000    38.4223290000
   15      C      40.7371600000    26.1200520000    38.8936120000
   16      C      41.0041080000    27.2988530000    38.3206670000
   17      C      42.4207730000    27.5157410000    37.9570580000
   18      C      43.3458790000    26.5710030000    38.3547740000
   19      C      44.2382010000    26.5351120000    37.3179780000
   20      C      44.8863980000    25.2985250000    36.9585040000
   21      C      42.6840710000    28.1195660000    36.7129140000
   22      C      43.8230060000    27.3919730000    36.2818070000
   23      C      44.7262610000    23.7254490000    35.4689670000
   24      C      44.9842450000    25.0260280000    35.5989000000
   25      C      39.9640050000    27.6092010000    37.4440650000
   26      C      38.9960020000    26.5715640000    37.5491520000
   27      C      38.5666960000    23.8992580000    37.2013210000
   28      C      39.1394580000    22.6770710000    36.8047490000
   29      C      41.5317920000    21.5190110000    35.9948080000
   30      C      42.8750570000    21.7288680000    35.6705820000
   31      C      43.2232700000    22.2234780000    34.4033620000
   32      C      44.2715840000    23.2162440000    34.2819210000
   33      C      44.6489640000    25.9520630000    34.5662570000
   34      C      44.0581090000    27.1885070000    34.9727250000
   35      C      41.6102410000    28.4239080000    35.8448220000
   36      C      40.2690730000    28.2213460000    36.2391970000
   37      C      38.0284500000    24.7910210000    36.2145540000
   38      C      38.2443080000    26.1589580000    36.4041980000
   39      C      40.5161630000    21.6665940000    35.0352670000
   40      C      39.2311060000    22.2129440000    35.4594080000
   41      C      42.2475810000    22.1360450000    33.4177090000
   42      C      40.9278910000    21.8245620000    33.6822550000
   43      C      44.3242230000    25.4512210000    33.3113520000
   44      C      44.1583940000    24.0538650000    33.1654050000
   45      C      43.1775210000    27.8287580000    34.1315650000
   46      C      41.9898570000    28.4892220000    34.5094150000
   47      C      38.4986230000    23.0197660000    34.5677680000
   48      C      37.9426380000    24.2886770000    34.9103700000
   49      C      38.3010220000    27.0239370000    35.2303050000
   50      C      39.3353880000    28.0331730000    35.1652220000
   51      C      39.7194750000    28.1003930000    33.8481830000
   52      C      41.0384290000    28.3432830000    33.5083730000
   53      C      42.9378090000    27.3279290000    32.8556290000
   54      C      43.4873890000    26.1312920000    32.5403290000
   55      C      43.2432900000    23.9602810000    32.1398930000
   56      C      42.2707480000    22.9797210000    32.2892070000
   57      C      40.1112710000    22.5040300000    32.7642820000
   58      C      38.9553340000    23.0895980000    33.2456400000
   59      C      38.1425670000    26.4506400000    33.9684910000
   60      C      37.9720310000    25.1144660000    33.7831990000
   61      C      40.9610180000    23.2167260000    31.8826140000
   62      C      38.5492250000    24.3791350000    32.7690890000
   63      C      38.9547920000    27.1482300000    33.0944330000
   64      C      41.6842770000    27.6675110000    32.4661290000
   65      C      42.8301810000    25.2486860000    31.7481920000
   66      C      40.9288790000    26.7531600000    31.7264940000
   67      C      41.5142670000    25.5089630000    31.3269650000
   68      C      40.5711170000    24.5192640000    31.4018020000
   69      C      39.5953290000    26.4506030000    32.0356830000
   70      C      39.3488620000    25.0796090000    31.8526610000
   71      C      43.1333010000    31.7722320000    42.1698610000
   72      C      43.1975020000    30.9837720000    41.0469780000
   73      C      42.2327230000    31.1402440000    40.0289990000
   74      C      41.3808170000    32.1911960000    40.1087040000
   75      C      40.4761240000    32.3208200000    39.0367090000
   76      C      40.6135410000    33.3655510000    38.0903850000
   77      C      41.7302210000    34.2358700000    38.1600650000
   78      C      41.9292560000    35.1719820000    37.1445080000
   79      C      41.0919190000    35.2953680000    36.0723920000
   80      C      40.0616460000    34.3781050000    35.9618420000
   81      C      39.7372440000    33.4084890000    36.9343030000
   82      C      38.6801070000    32.5188030000    36.6705890000
   83      C      37.8726430000    32.5419350000    35.5231700000
   84      C      37.1320040000    33.7265550000    35.0706710000
   85      C      36.3825990000    33.6442530000    33.9449840000
   86      C      36.1319050000    32.4707720000    33.3397330000
   87      C      36.7217250000    31.3297770000    33.7997400000
   88      C      37.6730920000    31.3674350000    34.7976840000
   89      C      38.5886760000    31.5347560000    37.7043610000
   90      C      37.6696240000    30.4247020000    37.7897340000
   91      C      36.5108300000    30.0968590000    37.1694150000
   92      C      35.8617900000    28.9226930000    37.5083010000
   93      C      36.2982640000    28.0731700000    38.5891040000
   94      C      35.8545270000    26.7536790000    38.8513340000
   95      C      34.8981170000    26.1030120000    38.0416760000
   96      C      34.6507300000    24.7207110000    38.1745150000
   97      C      35.3469470000    24.0213570000    39.1687200000
   98      C      35.4770660000    22.6561510000    39.4659350000
   99      C      34.7790340000    21.5661810000    38.9390180000
  100      C      33.7380640000    21.7598970000    38.0947800000
  101      C      33.6411290000    21.1949650000    36.8035770000
  102      C      32.4478150000    21.1899280000    36.1154100000
  103      C      31.2767410000    21.7663920000    36.6843220000
  104      C      31.4109570000    22.3731120000    37.9174840000
  105      C      32.6387440000    22.3981900000    38.5975720000
  106      C      35.3200040000    20.2947850000    39.2984390000
  107      C      34.8372000000    19.1362150000    38.7062490000
  108      C      35.3126980000    17.8556440000    39.1429900000
  109      C      36.3179320000    17.6892950000    40.1105580000
  110      C      36.8615950000    18.8537830000    40.6211740000
  111      C      36.3994670000    20.1216790000    40.2313310000
  112      C      36.9665450000    21.2814270000    40.7632060000
  113      C      38.1096120000    21.2346290000    41.6193080000
  114      C      39.3078380000    20.7727170000    41.0524440000
  115      C      40.5051310000    20.7160950000    41.8130840000
  116      C      40.3904650000    21.0979980000    43.1612550000
  117      C      39.1627660000    21.4476410000    43.7538680000
  118      C      38.0020480000    21.5900800000    42.9351230000
  119      C      36.4890140000    22.5175800000    40.3835750000
  120      C      36.9560170000    23.7838520000    40.7344590000
  121      C      37.9237820000    24.3380810000    41.5343930000
  122      C      38.1725620000    25.7324180000    41.5517960000
  123      C      37.5333290000    26.5973740000    40.6381800000
  124      C      37.9517060000    27.9151270000    40.4522630000
  125      C      39.1097640000    28.5157240000    41.0178720000
  126      C      39.6117710000    29.7349930000    40.6525990000
  127      C      39.0328330000    30.3102150000    39.5864720000
  128      C      39.4825900000    31.3902280000    38.8243750000
  129      C      38.0306400000    29.7423860000    38.8897480000
  130      C      37.4102290000    28.5581490000    39.2847180000
  131      C      36.5578080000    25.9816780000    39.8102650000
  132      C      36.2873120000    24.6575570000    39.9083860000
  133      C      41.5009800000    33.1796880000    41.0520290000
  134      C      42.2790600000    32.8769990000    42.1585080000
  135      H      43.6038440000    31.5418660000    43.1227760000
  136      H      43.8908500000    30.1477090000    40.9994700000
  137      H      41.9696240000    30.4051020000    39.2731210000
  138      H      42.5572740000    34.2133670000    38.8650740000
  139      H      42.6474530000    35.9750060000    37.2884140000
  140      H      41.0615200000    36.1774790000    35.4379160000
  141      H      39.4793550000    34.4799160000    35.0496600000
  142      H      37.2697300000    34.6099780000    35.6887630000
  143      H      35.7822150000    34.5167850000    33.6992420000
  144      H      35.4924770000    32.3455920000    32.4692880000
  145      H      36.4761510000    30.4243430000    33.2519990000
  146      H      38.2012710000    30.4548910000    35.0623020000
  147      H      36.0564800000    30.7686540000    36.4468150000
  148      H      34.9072340000    28.7268620000    37.0266080000
  149      H      34.4144360000    26.7023180000    37.2747310000
  150      H      34.0581970000    24.2177960000    37.4146390000
  151      H      34.5526010000    20.7641960000    36.3971670000
  152      H      32.4639970000    20.7621020000    35.1167110000
  153      H      30.3554170000    21.7516880000    36.1067310000
  154      H      30.5495910000    22.8386140000    38.3907780000
  155      H      32.7155990000    22.9842400000    39.5094340000
  156      H      34.1326450000    19.0973720000    37.8786620000
  157      H      34.9791950000    16.9689430000    38.6111450000
  158      H      36.4631920000    16.7460920000    40.6298600000
  159      H      37.6369860000    18.7760540000    41.3786390000
  160      H      39.3792720000    20.5885220000    39.9829520000
  161      H      41.4708790000    20.4309520000    41.4025460000
  162      H      41.2575720000    21.2698440000    43.7944490000
  163      H      39.1986080000    21.6261860000    44.8255580000
  164      H      37.0423130000    21.8516100000    43.3743480000
  165      H      38.5209880000    23.6846770000    42.1646270000
  166      H      38.8688660000    26.1185130000    42.2925340000
  167      H      39.6543460000    27.9639510000    41.7797050000
  168      H      40.3212970000    30.2710490000    41.2780840000
  169      H      40.7988850000    34.0069160000    40.9766620000
  170      H      42.2097020000    33.5428470000    43.0153390000
 ----------------------------------------------------------------
 Nuclear Repulsion Energy =       30363.92175923 hartrees
 There are      420 alpha and      420 beta electrons

 Q-Chem warning in module forms1/BasisType.C, line 2987:

 You are not using the predefined 5D/6D in this basis set.

 Requested basis set is SV
 There are 742 shells and 1278 basis functions

 Q-Chem warning in module libmdc/get_mega.C, line 167:

 Allowed MEM_STATIC has been capped at MEM_STATIC=8191.
 Reduce the value of MEM_STATIC to silence this warning.


 Total QAlloc Memory Limit 180000 MB
 Mega-Array Size      8007 MB
 MEM_STATIC part      8191 MB

 A cutoff of  1.0D-12 yielded 120786 shell pairs
 There are    418786 function pairs
 Smallest overlap matrix eigenvalue = 2.03E-05

 Scale SEOQF with 1.000000e-03/1.000000e-03/1.000000e-03

 Standard Electronic Orientation quadrupole field applied
 Nucleus-field energy     =    -0.0000003623 hartrees
 ================ Generating on-the-fly SAD Guess ================
 Attempting to make child job directory: /tmp/xs13_9697723/qchem379635//Frg1/
 Attempting to make child job directory: /tmp/xs13_9697723/qchem379635//Frg2/
 Creating input file /tmp/xs13_9697723/qchem379635/Frg1.input
 using default PutDataFrgm: nothing
 calling putenv with: QCSCRATCH=/tmp/xs13_9697723/qchem379635/ 
 Spawning Job For Fragment 0
 Done Job For Fragment 0
 calling putenv with: QCSCRATCH=/tmp/xs13_9697723 
 calling putenv with: QCTHREADS=40 
 Creating input file /tmp/xs13_9697723/qchem379635/Frg2.input
 using default PutDataFrgm: nothing
 calling putenv with: QCSCRATCH=/tmp/xs13_9697723/qchem379635/ 
 Spawning Job For Fragment 1
 Done Job For Fragment 1
 calling putenv with: QCSCRATCH=/tmp/xs13_9697723 
 calling putenv with: QCTHREADS=40 
 Time for running child jobs:  CPU 0.03 s  wall 1.36 s
 ============= Method Specific SAD Guess Constructed =============
 Guess from on-the-fly superposition of atomic densities
 Warning: Energy on first SCF cycle will be non-variational

 -----------------------------------------------------------------------
  General SCF calculation program by
  Eric Jon Sundstrom, Paul Horn, Yuezhi Mao, Dmitri Zuev, Alec White,
  David Stuck, Shaama M.S., Shane Yost, Joonho Lee, David Small,
  Daniel Levine, Susi Lehtola, Hugh Burton, Evgeny Epifanovsky,
  Bang C. Huynh
 -----------------------------------------------------------------------
 Exchange:     0.2220 Hartree-Fock + 1.0000 wB97X-D + LR-HF
 Correlation:  1.0000 wB97X-D
 Using SG-2 standard quadrature grid
 Dispersion:   Grimme D
 using 40 threads for integral computing
 -------------------------------------------------------
 OpenMP Integral computing Module                
 Release: version 1.0, May 2013, Q-Chem Inc. Pittsburgh 
 -------------------------------------------------------
 A restricted SCF calculation will be
 performed using DIIS
 SCF converges when DIIS error is below 1.0e-08
 ---------------------------------------
  Cycle       Energy         DIIS error
 ---------------------------------------
    1   -5192.9784736698      3.33e-02  
    2   -5124.3439470654      1.27e-03  
    3   -5124.7295832850      6.77e-04  
    4   -5124.8132605469      3.56e-04  
    5   -5124.8402277816      1.46e-04  
    6   -5124.8456227400      4.40e-05  
    7   -5124.8461932536      1.35e-05  
    8   -5124.8463169022      8.78e-06  
    9   -5124.8463703098      3.71e-06  
   10   -5124.8463852625      2.15e-06  
   11   -5124.8463889741      8.21e-07  
   12   -5124.8463895748      4.22e-07  
   13   -5124.8463897363      1.89e-07  
   14   -5124.8463897652      8.60e-08  
   15   -5124.8463897692      4.94e-08  
   16   -5124.8463897704      1.91e-08  
   17   -5124.8463897776      1.04e-08  
   18   -5124.8463897738      4.73e-09  Convergence criterion met
 ---------------------------------------
 SCF time:   CPU 46701.92s  wall 2075.00s 
 SCF   energy in the final basis set =    -5124.8463897738
 Total energy in the final basis set =    -5124.8463897738
 
 MAX_CIS_SUBSPACE fits in available memory
 Direct TDDFT/TDA calculation will be performed
 Exchange:     0.2220 Hartree-Fock + 1.0000 wB97X-D + LR-HF
 Correlation:  1.0000 wB97X-D
 Using SG-2 standard quadrature grid
 Dispersion:   Grimme D
 Singlet excitation energies requested
 CIS energy converged when residual is below 10e- 6
 ---------------------------------------------------
 Iter    Rts Conv    Rts Left    Ttl Dev     Max Dev
 ---------------------------------------------------
   1         0          25      0.001502    0.000182
   2         0          25      0.000532    0.000038
   3         0          25      0.000520    0.000089
   4         0          25      0.000379    0.000062
   5         3          22      0.000346    0.000050
   6         5          20      0.000247    0.000039
   7         5          20      0.000188    0.000033
   8         8          17      0.000106    0.000016
   9        14          11      0.000071    0.000014
  10        16           9      0.000045    0.000012
  11        17           8      0.000026    0.000006
  12        20           5      0.000015    0.000003
  13        24           1      0.000009    0.000001
  14        25           0      0.000008    0.000001    Roots Converged
 ---------------------------------------------------
 
 ---------------------------------------------------
         TDDFT/TDA Excitation Energies              
 ---------------------------------------------------

 Excited state   1: excitation energy (eV) =    1.5055
 Total energy for state  1:                 -5124.79106236 au
    Multiplicity: Singlet
    Trans. Mom.:  0.2187 X  -0.2602 Y  -0.1884 Z
    Strength   :     0.0055710498
    D(  420) --> V(    1) amplitude =  0.8549
    D(  420) --> V(    2) amplitude =  0.4341

 Excited state   2: excitation energy (eV) =    1.8242
 Total energy for state  2:                 -5124.77935019 au
    Multiplicity: Singlet
    Trans. Mom.: -0.0361 X   0.2134 Y  -0.0059 Z
    Strength   :     0.0020951612
    D(  420) --> V(    1) amplitude = -0.2490
    D(  420) --> V(    2) amplitude =  0.7350
    D(  420) --> V(    3) amplitude =  0.5773

 Excited state   3: excitation energy (eV) =    2.0964
 Total energy for state  3:                 -5124.76934862 au
    Multiplicity: Singlet
    Trans. Mom.:  0.2452 X   0.8015 Y  -0.1739 Z
    Strength   :     0.0376345408
    D(  420) --> V(    1) amplitude =  0.4169
    D(  420) --> V(    2) amplitude = -0.4537
    D(  420) --> V(    3) amplitude =  0.7428

 Excited state   4: excitation energy (eV) =    2.1635
 Total energy for state  4:                 -5124.76688166 au
    Multiplicity: Singlet
    Trans. Mom.: -0.0425 X  -0.5724 Y   0.0113 Z
    Strength   :     0.0174677250
    D(  415) --> V(    2) amplitude = -0.2512
    D(  416) --> V(    3) amplitude =  0.2735
    D(  417) --> V(    1) amplitude =  0.7978

 Excited state   5: excitation energy (eV) =    2.2364
 Total energy for state  5:                 -5124.76420412 au
    Multiplicity: Singlet
    Trans. Mom.: -1.5292 X  -4.1249 Y   0.9174 Z
    Strength   :     1.1064815789
    D(  420) --> V(    4) amplitude = -0.5144
    D(  420) --> V(    5) amplitude =  0.7514

 Excited state   6: excitation energy (eV) =    2.3902
 Total energy for state  6:                 -5124.75855062 au
    Multiplicity: Singlet
    Trans. Mom.: -0.0429 X   0.9276 Y   0.0087 Z
    Strength   :     0.0504960788
    D(  416) --> V(    2) amplitude = -0.2981
    D(  417) --> V(    2) amplitude =  0.8197

 Excited state   7: excitation energy (eV) =    2.4683
 Total energy for state  7:                 -5124.75568148 au
    Multiplicity: Singlet
    Trans. Mom.: -0.7011 X  -0.3822 Y   0.1954 Z
    Strength   :     0.0408645824
    D(  411) --> V(    2) amplitude = -0.2221
    D(  415) --> V(    2) amplitude = -0.2980
    D(  416) --> V(    1) amplitude =  0.7060

 Excited state   8: excitation energy (eV) =    2.4743
 Total energy for state  8:                 -5124.75546267 au
    Multiplicity: Singlet
    Trans. Mom.: -0.1333 X   0.5395 Y   0.1379 Z
    Strength   :     0.0198712650
    D(  410) --> V(    2) amplitude =  0.2588
    D(  411) --> V(    1) amplitude = -0.2179
    D(  416) --> V(    2) amplitude =  0.5995
    D(  417) --> V(    2) amplitude =  0.2370
    D(  417) --> V(    3) amplitude =  0.4060

 Excited state   9: excitation energy (eV) =    2.5299
 Total energy for state  9:                 -5124.75341812 au
    Multiplicity: Singlet
    Trans. Mom.: -0.2034 X  -1.0202 Y  -0.0456 Z
    Strength   :     0.0672042374
    D(  411) --> V(    1) amplitude = -0.2198
    D(  411) --> V(    3) amplitude =  0.2347
    D(  414) --> V(    1) amplitude =  0.2399
    D(  415) --> V(    1) amplitude =  0.4775
    D(  416) --> V(    1) amplitude = -0.2406
    D(  416) --> V(    2) amplitude =  0.2494
    D(  416) --> V(    3) amplitude =  0.2687
    D(  417) --> V(    1) amplitude = -0.3233

 Excited state  10: excitation energy (eV) =    2.5508
 Total energy for state 10:                 -5124.75265137 au
    Multiplicity: Singlet
    Trans. Mom.: -0.2772 X  -0.6806 Y   0.0458 Z
    Strength   :     0.0338814369
    D(  416) --> V(    2) amplitude = -0.3876
    D(  417) --> V(    3) amplitude =  0.7702

 Excited state  11: excitation energy (eV) =    2.5981
 Total energy for state 11:                 -5124.75091231 au
    Multiplicity: Singlet
    Trans. Mom.: -0.0215 X  -0.3485 Y  -0.0905 Z
    Strength   :     0.0082831504
    D(  420) --> V(    4) amplitude =  0.7398
    D(  420) --> V(    5) amplitude =  0.5004

 Excited state  12: excitation energy (eV) =    2.6219
 Total energy for state 12:                 -5124.75003782 au
    Multiplicity: Singlet
    Trans. Mom.: -0.3506 X  -0.0031 Y   0.1922 Z
    Strength   :     0.0102678990
    D(  414) --> V(    2) amplitude =  0.2960
    D(  415) --> V(    1) amplitude =  0.3952
    D(  415) --> V(    2) amplitude =  0.6358
    D(  416) --> V(    1) amplitude =  0.3443

 Excited state  13: excitation energy (eV) =    2.6559
 Total energy for state 13:                 -5124.74878546 au
    Multiplicity: Singlet
    Trans. Mom.: -0.5891 X   0.2188 Y   0.2883 Z
    Strength   :     0.0311024778
    D(  408) --> V(    3) amplitude =  0.2282
    D(  410) --> V(    3) amplitude = -0.2177
    D(  415) --> V(    1) amplitude = -0.3298
    D(  415) --> V(    3) amplitude =  0.4003
    D(  416) --> V(    3) amplitude =  0.6124

 Excited state  14: excitation energy (eV) =    2.6810
 Total energy for state 14:                 -5124.74786595 au
    Multiplicity: Singlet
    Trans. Mom.: -0.3049 X  -0.3905 Y   0.1525 Z
    Strength   :     0.0176500994
    D(  411) --> V(    1) amplitude =  0.2464
    D(  415) --> V(    3) amplitude =  0.2978
    D(  416) --> V(    2) amplitude =  0.2352
    D(  417) --> V(    3) amplitude =  0.2455
    D(  418) --> V(    1) amplitude = -0.2218
    D(  419) --> V(    1) amplitude =  0.4573
    D(  419) --> V(    2) amplitude =  0.2967

 Excited state  15: excitation energy (eV) =    2.7063
 Total energy for state 15:                 -5124.74693646 au
    Multiplicity: Singlet
    Trans. Mom.:  0.1379 X   0.1105 Y   0.0026 Z
    Strength   :     0.0020705960
    D(  412) --> V(    1) amplitude = -0.2844
    D(  413) --> V(    1) amplitude = -0.2184
    D(  414) --> V(    3) amplitude =  0.2990
    D(  415) --> V(    3) amplitude =  0.3864
    D(  416) --> V(    2) amplitude =  0.2229
    D(  416) --> V(    3) amplitude = -0.3427
    D(  419) --> V(    1) amplitude = -0.3843

 Excited state  16: excitation energy (eV) =    2.7264
 Total energy for state 16:                 -5124.74619673 au
    Multiplicity: Singlet
    Trans. Mom.:  0.1459 X   0.1433 Y  -0.4516 Z
    Strength   :     0.0164135943
    D(  412) --> V(    1) amplitude =  0.5139
    D(  413) --> V(    1) amplitude =  0.3724
    D(  415) --> V(    3) amplitude =  0.3129
    D(  417) --> V(    4) amplitude = -0.3360

 Excited state  17: excitation energy (eV) =    2.7815
 Total energy for state 17:                 -5124.74417029 au
    Multiplicity: Singlet
    Trans. Mom.: -0.0168 X   0.3036 Y  -0.0574 Z
    Strength   :     0.0065271734
    D(  411) --> V(    1) amplitude =  0.3158
    D(  411) --> V(    2) amplitude =  0.2648
    D(  412) --> V(    1) amplitude =  0.2658
    D(  412) --> V(    2) amplitude =  0.3376
    D(  415) --> V(    3) amplitude = -0.2687
    D(  418) --> V(    1) amplitude =  0.2725
    D(  419) --> V(    1) amplitude = -0.2667

 Excited state  18: excitation energy (eV) =    2.7934
 Total energy for state 18:                 -5124.74373460 au
    Multiplicity: Singlet
    Trans. Mom.:  0.0387 X  -0.0166 Y  -0.0299 Z
    Strength   :     0.0001823631
    D(  410) --> V(    2) amplitude = -0.2660
    D(  412) --> V(    1) amplitude =  0.2923
    D(  412) --> V(    2) amplitude = -0.5959
    D(  413) --> V(    2) amplitude = -0.2221
    D(  416) --> V(    2) amplitude =  0.2323

 Excited state  19: excitation energy (eV) =    2.8102
 Total energy for state 19:                 -5124.74311517 au
    Multiplicity: Singlet
    Trans. Mom.:  0.1623 X   0.2232 Y  -0.0618 Z
    Strength   :     0.0055042699
    D(  418) --> V(    1) amplitude =  0.6700
    D(  418) --> V(    2) amplitude =  0.3346
    D(  419) --> V(    1) amplitude =  0.4299

 Excited state  20: excitation energy (eV) =    2.8459
 Total energy for state 20:                 -5124.74180423 au
    Multiplicity: Singlet
    Trans. Mom.:  0.0762 X   0.4171 Y  -0.0469 Z
    Strength   :     0.0126865813
    D(  408) --> V(    2) amplitude = -0.2656
    D(  411) --> V(    2) amplitude =  0.2584
    D(  411) --> V(    3) amplitude =  0.2598
    D(  412) --> V(    3) amplitude =  0.2121
    D(  413) --> V(    2) amplitude = -0.2525
    D(  416) --> V(    3) amplitude = -0.2448

 Excited state  21: excitation energy (eV) =    2.8993
 Total energy for state 21:                 -5124.73984157 au
    Multiplicity: Singlet
    Trans. Mom.: -0.1715 X  -0.1148 Y   0.0105 Z
    Strength   :     0.0030339093
    D(  408) --> V(    1) amplitude = -0.2524
    D(  418) --> V(    4) amplitude = -0.3822
    D(  418) --> V(    5) amplitude =  0.6252

 Excited state  22: excitation energy (eV) =    2.9023
 Total energy for state 22:                 -5124.73973304 au
    Multiplicity: Singlet
    Trans. Mom.: -0.0938 X   0.1654 Y  -0.0115 Z
    Strength   :     0.0025801923
    D(  408) --> V(    1) amplitude = -0.3641
    D(  409) --> V(    3) amplitude = -0.2382
    D(  410) --> V(    1) amplitude = -0.3194
    D(  412) --> V(    3) amplitude =  0.2203
    D(  413) --> V(    3) amplitude =  0.2369
    D(  418) --> V(    4) amplitude =  0.2500
    D(  418) --> V(    5) amplitude = -0.4302

 Excited state  23: excitation energy (eV) =    2.9465
 Total energy for state 23:                 -5124.73810687 au
    Multiplicity: Singlet
    Trans. Mom.: -0.0794 X  -0.1571 Y  -0.0478 Z
    Strength   :     0.0024025168
    D(  409) --> V(    1) amplitude = -0.6458
    D(  409) --> V(    2) amplitude = -0.4055
    D(  410) --> V(    3) amplitude =  0.2274

 Excited state  24: excitation energy (eV) =    2.9619
 Total energy for state 24:                 -5124.73754321 au
    Multiplicity: Singlet
    Trans. Mom.: -0.0086 X   0.3497 Y  -0.0374 Z
    Strength   :     0.0089827887
    D(  410) --> V(    1) amplitude =  0.3134
    D(  410) --> V(    2) amplitude =  0.2387
    D(  410) --> V(    3) amplitude =  0.3663
    D(  412) --> V(    3) amplitude =  0.2912
    D(  419) --> V(    2) amplitude =  0.3540
    D(  419) --> V(    3) amplitude =  0.2927

 Excited state  25: excitation energy (eV) =    2.9654
 Total energy for state 25:                 -5124.73741184 au
    Multiplicity: Singlet
    Trans. Mom.: -0.1251 X  -0.0343 Y   0.0941 Z
    Strength   :     0.0018661775
    D(  408) --> V(    1) amplitude = -0.3944
    D(  409) --> V(    1) amplitude =  0.2243
    D(  409) --> V(    2) amplitude = -0.2736
    D(  412) --> V(    3) amplitude = -0.4291
    D(  413) --> V(    3) amplitude = -0.2335
 
 ---------------------------------------------------
  SETman timing summary (seconds)
  CPU time            207452.92s
  System time              0.06s
  Wall time             9437.50s

                    FCD ELECTRONIC-COUPLING CALCULATION


       Fragment Charges of Ground State with Nuclear Charges
 -----------------------------------------------------
   State         Q(D)        Q(A)          dQ
 -----------------------------------------------------
       0     0.070988   -0.070988    0.141976
 -----------------------------------------------------

 Within CIS/TDA Excited States:

       Fragment Charges of Singlet Excited State with Nuclear Charges
 -----------------------------------------------------
   State         Q(D)        Q(A)          dQ
 -----------------------------------------------------
       1     1.056095   -1.056095    2.112190 (  1.970214)
       2     1.055677   -1.055677    2.111353 (  1.969377)
       3     1.020732   -1.020732    2.041465 (  1.899489)
       4     0.083945   -0.083945    0.167890 (  0.025914)
       5     0.121676   -0.121676    0.243352 (  0.101376)
       6     0.087151   -0.087151    0.174302 (  0.032326)
       7     0.088171   -0.088171    0.176343 (  0.034367)
       8     0.079468   -0.079468    0.158935 (  0.016959)
       9     0.093729   -0.093729    0.187459 (  0.045483)
      10     0.087874   -0.087874    0.175748 (  0.033772)
      11     1.025346   -1.025346    2.050692 (  1.908716)
      12     0.076787   -0.076787    0.153574 (  0.011598)
      13     0.086398   -0.086398    0.172796 (  0.030820)
      14     0.493041   -0.493041    0.986082 (  0.844105)
      15     0.354844   -0.354844    0.709687 (  0.567711)
      16     0.144112   -0.144112    0.288223 (  0.146247)
      17     0.297809   -0.297809    0.595618 (  0.453642)
      18     0.084019   -0.084019    0.168038 (  0.026062)
      19     0.931018   -0.931018    1.862037 (  1.720060)
      20     0.122027   -0.122027    0.244053 (  0.102077)
      21     0.149308   -0.149308    0.298616 (  0.156639)
      22     0.109399   -0.109399    0.218797 (  0.076821)
      23     0.118703   -0.118703    0.237406 (  0.095430)
      24     0.343719   -0.343719    0.687437 (  0.545461)
      25     0.085744   -0.085744    0.171488 (  0.029512)
 -----------------------------------------------------

               Fragment Charges of Transition Densities and
            FCD Couplings Between Ground and Singlet Excited States
 --------------------------------------------------------------------------------
    States     Q12(D)     Q12(A)       dQ12    Coupling(eV)   FCD-dQ1    FCD-dQ2
 --------------------------------------------------------------------------------
    0    1   0.045301  -0.045301   0.090601    -0.06894172   0.137819   2.116347
    0    2  -0.007612   0.007612  -0.015224     0.01410015   0.141858   2.111471
    0    3  -0.011719   0.011719  -0.023438     0.02585925   0.141687   2.041754
    0    4   0.000047  -0.000047   0.000093   -0.007766933   0.141976   0.167891
    0    5  -0.008429   0.008429  -0.016858      0.3528843   0.139246   0.246082
    0    6  -0.001869   0.001869  -0.003737      0.2692228   0.141550   0.174729
    0    7  -0.006803   0.006803  -0.013606      0.7661324   0.137242   0.181077
    0    8  -0.002380   0.002380  -0.004760      0.6056092   0.140731   0.160180
    0    9   0.000493  -0.000493   0.000987    -0.05484263   0.141955   0.187480
    0   10   0.001412  -0.001412   0.002825     -0.2104212   0.141741   0.175983
    0   11   0.028684  -0.028684   0.057369    -0.07794774   0.140253   2.052414
    0   12  -0.002057   0.002057  -0.004114      0.7585224   0.140665   0.154885
    0   13  -0.003101   0.003101  -0.006201      0.4957492   0.140775   0.173997
    0   14  -0.017262   0.017262  -0.034524      0.1092884   0.140566   0.987491
    0   15   0.009458  -0.009458   0.018917    -0.08997635   0.141346   0.710317
    0   16   0.011574  -0.011574   0.023147      -0.411403   0.138400   0.291800
    0   17   0.006067  -0.006067   0.012134    -0.07429197   0.141652   0.595943
    0   18   0.003952  -0.003952   0.007904     -0.7243164   0.139767   0.170248
    0   19   0.004324  -0.004324   0.008648    -0.01412899   0.141933   1.862080
    0   20  -0.005879   0.005879  -0.011758      0.3194446   0.140639   0.245390
    0   21  -0.010587   0.010587  -0.021174      0.3783451   0.139164   0.301427
    0   22   0.004151  -0.004151   0.008301      -0.306538   0.141089   0.219684
    0   23   0.002366  -0.002366   0.004732     -0.1454063   0.141742   0.237640
    0   24  -0.007335   0.007335  -0.014671     0.07954645   0.141582   0.687831
    0   25   0.001675  -0.001675   0.003350      -0.328274   0.141601   0.171864
 --------------------------------------------------------------------------------

               Fragment Charges of Transition Densities and
            FCD Couplings Between Singlet Excited States
 --------------------------------------------------------------------------------
    States     Q12(D)     Q12(A)       dQ12    Coupling(eV)   FCD-dQ1    FCD-dQ2
 --------------------------------------------------------------------------------
    1    2   0.003410  -0.003410   0.006820      0.1590534   2.118604   2.104939
    1    3   0.010133  -0.010133   0.020265      0.1468927   2.117585   2.036069
    1    4  -0.030531   0.030531  -0.061063     -0.0206242   2.114106   0.165975
    1    5  -0.052017   0.052017  -0.104034    -0.04043482   2.117963   0.237579
    1    6  -0.000704   0.000704  -0.001408  -0.0006428694   2.112191   0.174301
    1    7   0.009835  -0.009835   0.019670    0.009780609   2.112390   0.176143
    1    8  -0.004505   0.004505  -0.009009   -0.004467959   2.112231   0.158894
    1    9  -0.012642   0.012642  -0.025284    -0.01345146   2.112522   0.187127
    1   10  -0.006841   0.006841  -0.013681   -0.007383939   2.112286   0.175651
    1   11  -0.006138   0.006138  -0.012276     -0.2025499   2.114550   2.048332
    1   12  -0.002887   0.002887  -0.005774   -0.003291173   2.112207   0.153557
    1   13   0.005469  -0.005469   0.010938    0.006487555   2.112251   0.172735
    1   14   0.015228  -0.015228   0.030455     0.03174261   2.113013   0.985258
    1   15   0.011794  -0.011794   0.023588     0.02018275   2.112586   0.709291
    1   16  -0.022666   0.022666  -0.045333    -0.03030557   2.113316   0.287097
    1   17   0.022707  -0.022707   0.045414     0.03814155   2.113548   0.594260
    1   18   0.015118  -0.015118   0.030236     0.02001965   2.112660   0.167568
    1   19  -0.000423   0.000423  -0.000846   -0.004410001   2.112193   1.862034
    1   20  -0.001169   0.001169  -0.002338   -0.001677832   2.112193   0.244050
    1   21  -0.000162   0.000162  -0.000323  -0.0002484158   2.112190   0.298616
    1   22   0.002505  -0.002505   0.005010    0.003695568   2.112203   0.218784
    1   23   0.002743  -0.002743   0.005486    0.004216706   2.112206   0.237390
    1   24   0.005009  -0.005009   0.010018      0.0102389   2.112260   0.687367
    1   25  -0.010410   0.010410  -0.020820    -0.01565865   2.112413   0.171265
    2    3  -0.002623   0.002623  -0.005246    -0.02020224   2.111745   2.041073
    2    4   0.042279  -0.042279   0.084559     0.01470657   2.115025   0.164218
    2    5   0.009082  -0.009082   0.018165     0.00400705   2.111530   0.243176
    2    6  -0.056327   0.056327  -0.112654    -0.03269589   2.117883   0.167773
    2    7  -0.003257   0.003257  -0.006515   -0.002168279   2.111375   0.176321
    2    8  -0.006162   0.006162  -0.012324   -0.004102788   2.111431   0.158858
    2    9   0.040858  -0.040858   0.081716     0.02986415   2.114818   0.183994
    2   10  -0.004567   0.004567  -0.009133   -0.003427861   2.111396   0.175705
    2   11   0.004442  -0.004442   0.008884      0.1087632   2.112628   2.049417
    2   12  -0.004827   0.004827  -0.009654   -0.003932946   2.111401   0.153526
    2   13   0.007938  -0.007938   0.015877    0.006810831   2.111483   0.172666
    2   14   0.011320  -0.011320   0.022640     0.01722318   2.111808   0.985626
    2   15  -0.010564   0.010564  -0.021129     -0.0132896   2.111672   0.709369
    2   16  -0.003216   0.003216  -0.006431   -0.003182387   2.111376   0.288201
    2   17   0.021940  -0.021940   0.043879     0.02766658   2.112622   0.594349
    2   18   0.006967  -0.006967   0.013933    0.006947991   2.111453   0.167938
    2   19  -0.007097   0.007097  -0.014193    -0.05577087   2.112159   1.861231
    2   20   0.015826  -0.015826   0.031653     0.01730865   2.111890   0.243517
    2   21   0.007089  -0.007089   0.014178    0.008407596   2.111464   0.298505
    2   22   0.004211  -0.004211   0.008423    0.004797515   2.111391   0.218760
    2   23   0.008364  -0.008364   0.016728     0.01001637   2.111502   0.237256
    2   24   0.011539  -0.011539   0.023078     0.01842805   2.111727   0.687063
    2   25   0.014598  -0.014598   0.029197     0.01716842   2.111792   0.171049
    3    4   0.013169  -0.013169   0.026338    0.000943319   2.041835   0.167520
    3    5   0.180859  -0.180859   0.361717     0.02612564   2.111502   0.173315
    3    6   0.031923  -0.031923   0.063847     0.01002389   2.043645   0.172122
    3    7   0.029704  -0.029704   0.059408     0.01182194   2.043355   0.174452
    3    8  -0.031928   0.031928  -0.063856    -0.01278762   2.043628   0.156772
    3    9   0.022571  -0.022571   0.045141     0.01054209   2.042563   0.186360
    3   10  -0.018025   0.018025  -0.036050   -0.008772619   2.042161   0.175052
    3   11   0.021034  -0.021034   0.042068     -0.2493437   2.003758   2.088398
    3   12   0.034224  -0.034224   0.068447     0.01900169   2.043943   0.151095
    3   13   0.046114  -0.046114   0.092228     0.02748301   2.046006   0.168256
    3   14  -0.012325   0.012325  -0.024649    -0.01363823   2.042040   0.985506
    3   15  -0.026953   0.026953  -0.053905    -0.02460453   2.043643   0.707509
    3   16  -0.023154   0.023154  -0.046308    -0.01661686   2.042687   0.287001
    3   17   0.012996  -0.012996   0.025993     0.01230923   2.041932   0.595151
    3   18  -0.001698   0.001698  -0.003395   -0.001263257   2.041471   0.168032
    3   19  -0.009757   0.009757  -0.019514    -0.07586112   2.043562   1.859939
    3   20   0.005484  -0.005484   0.010968    0.004573189   2.041532   0.243986
    3   21  -0.006264   0.006264  -0.012528   -0.005770957   2.041555   0.298526
    3   22  -0.013746   0.013746  -0.027493    -0.01215029   2.041879   0.218383
    3   23  -0.004437   0.004437  -0.008873   -0.004181052   2.041508   0.237362
    3   24   0.005660  -0.005660   0.011321    0.007235149   2.041559   0.687342
    3   25  -0.011370   0.011370  -0.022741    -0.01056533   2.041741   0.171212
    4    5   0.005152  -0.005152   0.010305   -0.009597996   0.166508   0.244734
    4    6   0.000043  -0.000043   0.000087   -0.003060039   0.167889   0.174304
    4    7  -0.007482   0.007482  -0.014965      0.1466505   0.156566   0.187667
    4    8  -0.004299   0.004299  -0.008598     -0.1377972   0.173107   0.153719
    4    9  -0.002796   0.002796  -0.005593     0.09090634   0.166405   0.188945
    4   10  -0.001906   0.001906  -0.003811      0.1348085   0.166346   0.177293
    4   11  -0.007572   0.007572  -0.015144    0.003494692   0.167769   2.050814
    4   12  -0.002508   0.002508  -0.005016     -0.1315218   0.169473   0.151991
    4   13   0.002471  -0.002471   0.004942      -0.220537   0.164826   0.175861
    4   14  -0.007615   0.007615  -0.015229    0.009624681   0.167607   0.986365
    4   15   0.007194  -0.007194   0.014388    -0.01439299   0.167509   0.710069
    4   16   0.004668  -0.004668   0.009337    -0.04315752   0.167170   0.288944
    4   17   0.012753  -0.012753   0.025506    -0.03659286   0.166375   0.597134
    4   18   0.003885  -0.003885   0.007770     -0.3149175   0.160194   0.175735
    4   19   0.005621  -0.005621   0.011243   -0.004291433   0.167816   1.862111
    4   20  -0.003072   0.003072  -0.006145      0.0543507   0.167398   0.244546
    4   21   0.001344  -0.001344   0.002688    -0.01511665   0.167835   0.298671
    4   22   0.004402  -0.004402   0.008805     -0.1207554   0.166410   0.220277
    4   23  -0.011983   0.011983  -0.023965      0.2222318   0.160429   0.244867
    4   24   0.010307  -0.010307   0.020615    -0.03157763   0.167074   0.688254
    4   25   0.003586  -0.003586   0.007171      -0.388908   0.162296   0.177082
    5    6   0.006781  -0.006781   0.013563     0.02812475   0.245921   0.171734
    5    7   0.009151  -0.009151   0.018302       0.055589   0.248025   0.171670
    5    8  -0.009277   0.009277  -0.018554    -0.04786117   0.247250   0.155037
    5    9   0.005938  -0.005938   0.011875      0.0573923   0.245771   0.185040
    5   10   0.000628  -0.000628   0.001256    0.005836306   0.243376   0.175725
    5   11  -0.074229   0.074229  -0.148458     0.02931668   0.231239   2.062805
    5   12   0.002411  -0.002411   0.004822     0.02058643   0.243610   0.153316
    5   13   0.015042  -0.015042   0.030084      0.1361218   0.254438   0.161711
    5   14  -0.024884   0.024884  -0.049767     0.02952592   0.240032   0.989401
    5   15   0.012157  -0.012157   0.024314    -0.02436652   0.242088   0.710951
    5   16   0.002369  -0.002369   0.004737    -0.05061386   0.242858   0.288718
    5   17   0.020066  -0.020066   0.040133    -0.06055498   0.238838   0.600133
    5   18  -0.001193   0.001193  -0.002387    -0.01761606   0.243428   0.167963
    5   19   0.047585  -0.047585   0.095169    -0.03350879   0.237776   1.867613
    5   20   0.009028  -0.009028   0.018055     -0.3047086   0.225644   0.261762
    5   21  -0.014687   0.014687  -0.029374      0.2414344   0.230656   0.311312
    5   22   0.005866  -0.005866   0.011733      0.2300285   0.248057   0.214092
    5   23   0.001667  -0.001667   0.003334      0.2649996   0.244846   0.235912
    5   24  -0.000732   0.000732  -0.001464    0.002392126   0.243347   0.687442
    5   25  -0.001765   0.001765  -0.003529    -0.03563407   0.243525   0.171315
    6    7  -0.004615   0.004615  -0.009230     0.03880032   0.166037   0.184608
    6    8  -0.000839   0.000839  -0.001678   -0.008965601   0.174483   0.158754
    6    9  -0.004475   0.004475  -0.008951     0.05626932   0.169772   0.191989
    6   10  -0.000187   0.000187  -0.000375     0.03694688   0.174211   0.175840
    6   11   0.017539  -0.017539   0.035077   -0.003882808   0.173647   2.051347
    6   12   0.003445  -0.003445   0.006889     0.06411576   0.176383   0.151493
    6   13  -0.000367   0.000367  -0.000735     -0.0927809   0.174601   0.172497
    6   14  -0.006538   0.006538  -0.013076    0.004680766   0.174092   0.986292
    6   15   0.002138  -0.002138   0.004277   -0.002524226   0.174268   0.709721
    6   16   0.002686  -0.002686   0.005372    -0.01578194   0.174050   0.288476
    6   17   0.001592  -0.001592   0.003184   -0.002956785   0.174278   0.595642
    6   18  -0.001293   0.001293  -0.002586     -0.1283431   0.175232   0.167108
    6   19   0.002642  -0.002642   0.005285   -0.001315212   0.174286   1.862053
    6   20   0.001327  -0.001327   0.002654    -0.01729087   0.174201   0.244154
    6   21  -0.008339   0.008339  -0.016678     0.06596819   0.172104   0.300814
    6   22  -0.001445   0.001445  -0.002890     0.03298551   0.174115   0.218984
    6   23   0.000702  -0.000702   0.001404    -0.01236896   0.174271   0.237437
    6   24  -0.022323   0.022323  -0.044647     0.04900108   0.170447   0.691293
    6   25  -0.007417   0.007417  -0.014835     -0.2863225   0.187796   0.157994
    7    8  -0.002598   0.002598  -0.005197   -0.001526198   0.177776   0.157502
    7    9  -0.001665   0.001665  -0.003330     0.01582831   0.175421   0.188380
    7   10  -0.002620   0.002620  -0.005239    -0.04116054   0.181293   0.170798
    7   11  -0.067718   0.067718  -0.135437    0.009280914   0.166607   2.060428
    7   12   0.001782  -0.001782   0.003563      0.0229363   0.176887   0.153029
    7   13   0.005751  -0.005751   0.011501     0.09272958   0.186206   0.162933
    7   14   0.024873  -0.024873   0.049746    -0.01296793   0.173298   0.989126
    7   15  -0.022744   0.022744  -0.045488     0.02000649   0.172491   0.713539
    7   16  -0.019339   0.019339  -0.038677     0.07338941   0.164274   0.300292
    7   17  -0.026074   0.026074  -0.052148      0.0378067   0.169954   0.602007
    7   18  -0.000924   0.000924  -0.001849    -0.06611708   0.176736   0.167645
    7   19  -0.001321   0.001321  -0.002642   0.0005359984   0.176339   1.862041
    7   20   0.004786  -0.004786   0.009572    -0.05136842   0.175016   0.245380
    7   21   0.003318  -0.003318   0.006637    -0.02325801   0.175983   0.298975
    7   22  -0.007697   0.007697  -0.015395      0.1273916   0.171348   0.223792
    7   23   0.013183  -0.013183   0.026366      -0.156283   0.166534   0.247214
    7   24  -0.014676   0.014676  -0.029352     0.02816035   0.174662   0.689117
    7   25  -0.001656   0.001656  -0.003311     -0.2004801   0.178021   0.169810
    8    9   0.005047  -0.005047   0.010093    -0.01606987   0.155725   0.190669
    8   10   0.005438  -0.005438   0.010876    -0.03026371   0.153596   0.181088
    8   11   0.043687  -0.043687   0.087375   -0.005694717   0.154908   2.054719
    8   12   0.000550  -0.000550   0.001101     0.02804011   0.159153   0.153357
    8   13  -0.005583   0.005583  -0.011166     0.07718791   0.152724   0.179008
    8   14  -0.005247   0.005247  -0.010493    0.002621618   0.158802   0.986215
    8   15   0.006514  -0.006514   0.013028   -0.005482258   0.158627   0.709995
    8   16   0.006829  -0.006829   0.013657    -0.02605925   0.157509   0.289650
    8   17   0.002378  -0.002378   0.004755   -0.003345265   0.158884   0.595670
    8   18  -0.001645   0.001645  -0.003290     0.09347264   0.157871   0.169102
    8   19  -0.017140   0.017140  -0.034279     0.00675723   0.158246   1.862726
    8   20  -0.002330   0.002330  -0.004661     0.02023061   0.158681   0.244308
    8   21   0.001062  -0.001062   0.002124   -0.006460387   0.158903   0.298648
    8   22  -0.001178   0.001178  -0.002356      0.0167968   0.158843   0.218890
    8   23   0.003952  -0.003952   0.007905    -0.04663658   0.158147   0.238194
    8   24   0.000353  -0.000353   0.000706  -0.0006515217   0.158934   0.687438
    8   25  -0.000105   0.000105  -0.000211    0.008234687   0.158932   0.171492
    9   10   0.007700  -0.007700   0.015400    0.009751081   0.198079   0.165128
    9   11   0.017707  -0.017707   0.035413   -0.001295039   0.186786   2.051365
    9   12  -0.001556   0.001556  -0.003112    -0.00830975   0.187742   0.153290
    9   13   0.007661  -0.007661   0.015322     0.05685737   0.197113   0.163142
    9   14  -0.047588   0.047588  -0.095177     0.01751477   0.176273   0.997268
    9   15   0.035674  -0.035674   0.071349     -0.0232449   0.177886   0.719260
    9   16   0.018513  -0.018513   0.037027    -0.05818402   0.175316   0.300366
    9   17   0.032938  -0.032938   0.065877    -0.03865175   0.177090   0.605987
    9   18  -0.002901   0.002901  -0.005803    -0.06758583   0.189061   0.166436
    9   19  -0.028222   0.028222  -0.056445    0.009428596   0.185558   1.863937
    9   20  -0.004566   0.004566  -0.009132     0.04852967   0.186022   0.245490
    9   21   0.005667  -0.005667   0.011333    -0.03690692   0.186315   0.299759
    9   22  -0.001109   0.001109  -0.002218     0.02609185   0.187303   0.218953
    9   23  -0.006218   0.006218  -0.012436     0.09286348   0.184534   0.240331
    9   24   0.035543  -0.035543   0.071085    -0.05907528   0.177549   0.697347
    9   25   0.002101  -0.002101   0.004202      0.1014106   0.188497   0.170450
   10   11   0.003813  -0.003813   0.007627  -0.0001924805   0.175717   2.050723
   10   12  -0.002649   0.002649  -0.005297    -0.01532997   0.176949   0.152373
   10   13   0.003752  -0.003752   0.007503     0.05160949   0.181919   0.166625
   10   14  -0.050902   0.050902  -0.101804     0.01586632   0.163154   0.998676
   10   15   0.044016  -0.044016   0.088032    -0.02434977   0.161609   0.723827
   10   16   0.022944  -0.022944   0.045888    -0.05552045   0.159402   0.304569
   10   17   0.034693  -0.034693   0.069386    -0.03621128   0.164579   0.606788
   10   18   0.002004  -0.002004   0.004008     0.08743335   0.177454   0.166332
   10   19   0.002244  -0.002244   0.004489  -0.0006907405   0.175736   1.862049
   10   20  -0.003090   0.003090  -0.006179     0.02627496   0.175194   0.244608
   10   21  -0.010583   0.010583  -0.021165     0.05677073   0.172204   0.302159
   10   22   0.001833  -0.001833   0.003666    -0.02950845   0.175438   0.219107
   10   23  -0.000425   0.000425  -0.000849    0.005449888   0.175736   0.237417
   10   24   0.002359  -0.002359   0.004718   -0.003789673   0.175705   0.687481
   10   25  -0.001947   0.001947  -0.003893     -0.1818992   0.178056   0.169180
   11   12   0.034568  -0.034568   0.069136   0.0008649014   2.053208   0.151058
   11   13  -0.071011   0.071011  -0.142022    -0.00432773   2.061372   0.162116
   11   14   0.025544  -0.025544   0.051088    0.003959772   2.053138   0.983636
   11   15  -0.024202   0.024202  -0.048403     -0.0038949   2.052437   0.707942
   11   16   0.068578  -0.068578   0.137157    0.009866986   2.061302   0.277614
   11   17   0.029895  -0.029895   0.059790    0.007513136   2.053144   0.593166
   11   18   0.004674  -0.004674   0.009347   0.0009697016   2.050738   0.167992
   11   19  -0.016614   0.016614  -0.033227    -0.03524621   2.056373   1.856355
   11   20  -0.001115   0.001115  -0.002229  -0.0003058155   2.050694   0.244051
   11   21  -0.033656   0.033656  -0.067312    -0.01153951   2.053274   0.296033
   11   22   0.016887  -0.016887   0.033773     0.00560455   2.051314   0.218175
   11   23   0.001765  -0.001765   0.003529   0.0006782047   2.050699   0.237399
   11   24  -0.002536   0.002536  -0.005072   -0.001353324   2.050711   0.687418
   11   25   0.001677  -0.001677   0.003354    0.000655709   2.050698   0.171482
   12   13  -0.001358   0.001358  -0.002716    0.004633785   0.153197   0.173173
   12   14   0.024369  -0.024369   0.048739   -0.003436475   0.150730   0.988925
   12   15  -0.023117   0.023117  -0.046235    0.006921279   0.149756   0.713505
   12   16  -0.009390   0.009390  -0.018781     0.01404243   0.151003   0.290794
   12   17  -0.019340   0.019340  -0.038679     0.01376159   0.150215   0.598977
   12   18  -0.002379   0.002379  -0.004757     0.04713164   0.152149   0.169463
   12   19  -0.009284   0.009284  -0.018568    0.002046808   0.153372   1.862238
   12   20   0.003894  -0.003894   0.007788    -0.01900502   0.152908   0.244719
   12   21   0.002934  -0.002934   0.005868     -0.0111883   0.153337   0.298853
   12   22  -0.004968   0.004968  -0.009936     0.04086278   0.152094   0.220277
   12   23   0.000746  -0.000746   0.001491   -0.005771665   0.153547   0.237432
   12   24  -0.005544   0.005544  -0.011088    0.007055621   0.153344   0.687667
   12   25  -0.002006   0.002006  -0.004011     0.07021382   0.152717   0.172345
   13   14  -0.044047   0.044047  -0.088094      0.0026488   0.163364   0.995514
   13   15   0.031691  -0.031691   0.063381   -0.005780729   0.165416   0.717068
   13   16   0.005779  -0.005779   0.011557    -0.00691593   0.171651   0.289369
   13   17   0.026169  -0.026169   0.052337    -0.01508947   0.166414   0.602000
   13   18   0.004241  -0.004241   0.008482     0.06616699   0.179227   0.161607
   13   19  -0.012022   0.012022  -0.024045    0.002195361   0.172454   1.862379
   13   20  -0.004957   0.004957  -0.009913     0.02546138   0.171443   0.245407
   13   21   0.001378  -0.001378   0.002757   -0.005327515   0.172736   0.298676
   13   22  -0.004697   0.004697  -0.009395     0.04657199   0.170952   0.220642
   13   23  -0.004865   0.004865  -0.009730     0.04190096   0.171363   0.238839
   13   24   0.008990  -0.008990   0.017979    -0.01066126   0.172169   0.688064
   13   25  -0.003816   0.003816  -0.007632     -0.1541805   0.179802   0.164483
   14   15  -0.337880   0.337880  -0.675760    -0.01238992   1.537631   0.158138
   14   16  -0.148427   0.148427  -0.296853    -0.01471623   1.095272   0.179033
   14   17  -0.269531   0.269531  -0.539063    -0.04727689   1.364177   0.217523
   14   18  -0.033810   0.033810  -0.067620   -0.009168292   0.991633   0.162486
   14   19   0.061018  -0.061018   0.122036    -0.01734949   0.969397   1.878721
   14   20   0.071286  -0.071286   0.142572     0.02958362   1.012532   0.217603
   14   21   0.046389  -0.046389   0.092779     0.02845044   0.998383   0.286315
   14   22  -0.006515   0.006515  -0.013029   -0.003755824   0.986303   0.218576
   14   23   0.022196  -0.022196   0.044393     0.01563677   0.988705   0.234783
   14   24  -0.002263   0.002263  -0.004526     -0.0042553   0.986150   0.687368
   14   25   0.024409  -0.024409   0.048818     0.01692713   0.988997   0.168573
   15   16   0.118730  -0.118730   0.237460    0.007527706   0.816438   0.181473
   15   17   0.227767  -0.227767   0.455533     0.03734403   1.111743   0.193563
   15   18   0.030149  -0.030149   0.060298    0.009467477   0.716319   0.161407
   15   19  -0.034829   0.034829  -0.069658    0.006240158   0.705492   1.866232
   15   20  -0.055875   0.055875  -0.111749     -0.0302159   0.735117   0.218623
   15   21  -0.034928   0.034928  -0.069856    -0.03106303   0.721234   0.287069
   15   22   0.008543  -0.008543   0.017087    0.006806392   0.710281   0.218203
   15   23  -0.023372   0.023372  -0.046745    -0.02332797   0.714269   0.232823
   15   24   0.014402  -0.014402   0.028803      0.1192179   0.729439   0.667685
   15   25  -0.018792   0.018792  -0.037583    -0.01792491   0.712299   0.168876
   16   17   0.109490  -0.109490   0.218980    -0.02256717   0.174386   0.709456
   16   18   0.008262  -0.008262   0.016524    0.008881697   0.290454   0.165808
   16   19   0.029788  -0.029788   0.059575   -0.003165155   0.285971   1.864289
   16   20  -0.015090   0.015090  -0.030180    -0.04822883   0.303536   0.228741
   16   21  -0.032495   0.032495  -0.064991     0.08619134   0.228222   0.358617
   16   22   0.017220  -0.017220   0.034440     0.06193852   0.302409   0.204612
   16   23  -0.010606   0.010606  -0.021212    -0.07053876   0.295914   0.229715
   16   24   0.015095  -0.015095   0.030191     -0.0176076   0.285953   0.689707
   16   25  -0.001549   0.001549  -0.003099   -0.006336337   0.288306   0.171406
   17   18   0.024112  -0.024112   0.048225    0.001304387   0.600990   0.162667
   17   19   0.103606  -0.103606   0.207212   -0.004464793   0.562576   1.895079
   17   20  -0.018092   0.018092  -0.036184   -0.006490542   0.599304   0.240368
   17   21  -0.051205   0.051205  -0.102410    -0.03343576   0.627507   0.266727
   17   22   0.034508  -0.034508   0.069017     0.02076544   0.607861   0.206554
   17   23  -0.027111   0.027111  -0.054222    -0.02390354   0.603646   0.229378
   17   24   0.054339  -0.054339   0.108678     -0.0830591   0.523551   0.759505
   17   25  -0.006129   0.006129  -0.012258   -0.005306343   0.595972   0.171134
   18   19   0.004855  -0.004855   0.009710  -9.660589E-05   0.167982   1.862092
   18   20  -0.005768   0.005768  -0.011536    0.007628035   0.166326   0.245766
   18   21  -0.007734   0.007734  -0.015468      0.0122112   0.166231   0.300423
   18   22   0.001364  -0.001364   0.002728   -0.005819428   0.167892   0.218943
   18   23   0.001136  -0.001136   0.002272   -0.005005658   0.167964   0.237480
   18   24  -0.019632   0.019632  -0.039264     0.01259276   0.165087   0.690388
   18   25  -0.004327   0.004327  -0.008654     0.08436567   0.160939   0.178587
   19   20   0.168408  -0.168408   0.336816    0.006855481   1.929351   0.176739
   19   21  -0.188669   0.188669  -0.377339    -0.01936193   1.948345   0.212308
   19   22   0.152714  -0.152714   0.305428     0.01603394   1.916970   0.163864
   19   23   0.026763  -0.026763   0.053526    0.004480357   1.863798   0.235644
   19   24   0.019185  -0.019185   0.038369    0.004942289   1.863289   0.686185
   19   25   0.039715  -0.039715   0.079429    0.007259761   1.865760   0.167764
   20   21  -0.028953   0.028953  -0.057905     0.02415666   0.207325   0.335344
   20   22   0.026681  -0.026681   0.053363     0.02742256   0.286262   0.176589
   20   23   0.009309  -0.009309   0.018618     0.04952223   0.259642   0.221817
   20   24   0.011775  -0.011775   0.023549   -0.006123822   0.242806   0.688684
   20   25   0.009926  -0.009926   0.019851     0.02868447   0.249129   0.166413
   21   22  -0.036424   0.036424  -0.072849   -0.001294952   0.341771   0.175642
   21   23  -0.027922   0.027922  -0.055844    -0.02069738   0.331692   0.204330
   21   24   0.059717  -0.059717   0.119434    -0.01636868   0.264860   0.721193
   21   25   0.000410  -0.000410   0.000821   0.0004267839   0.298621   0.171483
   22   23  -0.003116   0.003116  -0.006232     0.01231303   0.216903   0.239300
   22   24   0.025440  -0.025440   0.050881   -0.006322252   0.213337   0.692898
   22   25   0.010438  -0.010438   0.020877     0.02089785   0.226692   0.163593
   23   24  -0.085276   0.085276  -0.170552    0.004632449   0.180074   0.744769
   23   25  -0.006177   0.006177  -0.012355   -0.003319158   0.239645   0.169249
   24   25   0.033615  -0.033615   0.067230   0.0004507402   0.696053   0.162872
 --------------------------------------------------------------------------------

                          END OF FCD CALCULATION

 STSman time:  CPU 5093.79 s  wall 277.25 s

 
 --------------------------------------------------------------
 
                    Orbital Energies (a.u.)
 --------------------------------------------------------------
 
 Alpha MOs
 -- Occupied --
-10.3638 -10.3633 -10.3621 -10.3591 -10.3584 -10.3581 -10.3572 -10.3570
-10.3560 -10.3559 -10.3555 -10.3554 -10.3548 -10.3526 -10.3526 -10.3524
-10.3517 -10.3517 -10.3517 -10.3514 -10.3505 -10.3504 -10.3499 -10.3493
-10.3493 -10.3492 -10.3490 -10.3489 -10.3489 -10.3487 -10.3487 -10.3485
-10.3479 -10.3476 -10.3475 -10.3475 -10.3474 -10.3470 -10.3469 -10.3463
-10.3462 -10.3457 -10.3455 -10.3448 -10.3447 -10.3446 -10.3445 -10.3440
-10.3436 -10.3435 -10.3430 -10.3428 -10.3427 -10.3426 -10.3424 -10.3423
-10.3420 -10.3417 -10.3414 -10.3401 -10.3397 -10.3392 -10.3390 -10.3376
-10.3374 -10.3374 -10.3358 -10.3351 -10.3341 -10.3321 -10.3215 -10.3208
-10.3201 -10.3199 -10.3186 -10.3185 -10.3173 -10.3170 -10.3164 -10.3161
-10.3141 -10.3139 -10.3131 -10.3130 -10.3125 -10.3118 -10.3117 -10.3116
-10.3114 -10.3113 -10.3112 -10.3110 -10.3109 -10.3109 -10.3105 -10.3103
-10.3099 -10.3099 -10.3099 -10.3098 -10.3094 -10.3089 -10.3086 -10.3084
-10.3084 -10.3076 -10.3071 -10.3052 -10.3045 -10.3044 -10.3041 -10.3040
-10.3039 -10.3038 -10.3037 -10.3030 -10.3030 -10.3027 -10.3021 -10.3019
-10.3019 -10.3017 -10.3015 -10.3015 -10.3014 -10.3011 -10.2996 -10.2990
-10.2972 -10.2964 -10.2958 -10.2947 -10.2880 -10.2859  -1.1286  -1.1170
 -1.1077  -1.1024  -1.0863  -1.0813  -1.0748  -1.0690  -1.0631  -1.0496
 -1.0471  -1.0443  -1.0408  -1.0359  -1.0082  -1.0058  -1.0031  -0.9989
 -0.9983  -0.9967  -0.9881  -0.9855  -0.9808  -0.9790  -0.9709  -0.9652
 -0.9587  -0.9514  -0.9493  -0.9489  -0.9463  -0.9436  -0.9421  -0.9400
 -0.9389  -0.9281  -0.9238  -0.9227  -0.9212  -0.9171  -0.9052  -0.8886
 -0.8866  -0.8833  -0.8794  -0.8769  -0.8760  -0.8739  -0.8689  -0.8675
 -0.8664  -0.8641  -0.8610  -0.8609  -0.8599  -0.8591  -0.8573  -0.8547
 -0.8532  -0.8500  -0.8480  -0.8473  -0.8432  -0.8290  -0.8275  -0.8192
 -0.8125  -0.8074  -0.8006  -0.7951  -0.7932  -0.7918  -0.7876  -0.7838
 -0.7811  -0.7804  -0.7781  -0.7678  -0.7577  -0.7554  -0.7542  -0.7523
 -0.7434  -0.7429  -0.7381  -0.7336  -0.7284  -0.7238  -0.7223  -0.7180
 -0.7141  -0.7136  -0.7100  -0.7045  -0.7036  -0.7022  -0.7015  -0.7008
 -0.6992  -0.6964  -0.6937  -0.6916  -0.6899  -0.6898  -0.6890  -0.6848
 -0.6768  -0.6665  -0.6614  -0.6601  -0.6579  -0.6499  -0.6484  -0.6438
 -0.6424  -0.6413  -0.6409  -0.6370  -0.6310  -0.6282  -0.6255  -0.6194
 -0.6192  -0.6146  -0.6122  -0.6119  -0.6110  -0.6072  -0.6053  -0.6026
 -0.6000  -0.5994  -0.5944  -0.5903  -0.5898  -0.5887  -0.5882  -0.5874
 -0.5849  -0.5837  -0.5827  -0.5786  -0.5769  -0.5762  -0.5741  -0.5713
 -0.5656  -0.5643  -0.5632  -0.5631  -0.5618  -0.5605  -0.5598  -0.5584
 -0.5564  -0.5531  -0.5515  -0.5506  -0.5498  -0.5489  -0.5463  -0.5446
 -0.5415  -0.5405  -0.5399  -0.5382  -0.5365  -0.5363  -0.5340  -0.5338
 -0.5330  -0.5323  -0.5314  -0.5313  -0.5275  -0.5271  -0.5266  -0.5252
 -0.5230  -0.5211  -0.5207  -0.5185  -0.5163  -0.5158  -0.5152  -0.5143
 -0.5135  -0.5126  -0.5113  -0.5108  -0.5094  -0.5080  -0.5034  -0.5029
 -0.5004  -0.4996  -0.4988  -0.4986  -0.4950  -0.4931  -0.4917  -0.4890
 -0.4874  -0.4865  -0.4844  -0.4814  -0.4804  -0.4794  -0.4781  -0.4762
 -0.4750  -0.4677  -0.4662  -0.4607  -0.4601  -0.4594  -0.4582  -0.4570
 -0.4561  -0.4554  -0.4542  -0.4530  -0.4516  -0.4491  -0.4490  -0.4465
 -0.4462  -0.4456  -0.4450  -0.4428  -0.4412  -0.4409  -0.4403  -0.4378
 -0.4361  -0.4335  -0.4331  -0.4326  -0.4273  -0.4237  -0.4220  -0.4203
 -0.4190  -0.4138  -0.4113  -0.4078  -0.4049  -0.4024  -0.4015  -0.3964
 -0.3938  -0.3934  -0.3912  -0.3863  -0.3837  -0.3817  -0.3755  -0.3701
 -0.3663  -0.3560  -0.3528  -0.3423  -0.3377  -0.3366  -0.3337  -0.3317
 -0.3307  -0.3301  -0.3284  -0.3276  -0.3259  -0.3251  -0.3243  -0.3183
 -0.3160  -0.3148  -0.3111  -0.3075  -0.3031  -0.2951  -0.2937  -0.2923
 -0.2847  -0.2785  -0.2661  -0.2294
 -- Virtual --
 -0.0952  -0.0926  -0.0885  -0.0580  -0.0558  -0.0463  -0.0416  -0.0048
  0.0058   0.0173   0.0178   0.0201   0.0205   0.0257   0.0355   0.0377
  0.0401   0.0444   0.0477   0.0479   0.0488   0.0523   0.0542   0.0555
  0.0565   0.0582   0.0628   0.0655   0.0690   0.0744   0.0749   0.0771
  0.0783   0.0800   0.0833   0.0934   0.1122   0.1142   0.1169   0.1200
  0.1227   0.1265   0.1333   0.1446   0.1494   0.1516   0.1563   0.1617
  0.1711   0.1740   0.1800   0.1818   0.1832   0.1844   0.1867   0.1889
  0.1908   0.1926   0.1969   0.1978   0.2005   0.2028   0.2034   0.2043
  0.2059   0.2068   0.2116   0.2123   0.2141   0.2150   0.2168   0.2206
  0.2208   0.2227   0.2234   0.2245   0.2273   0.2286   0.2291   0.2313
  0.2330   0.2332   0.2346   0.2357   0.2359   0.2376   0.2381   0.2398
  0.2417   0.2433   0.2437   0.2443   0.2453   0.2462   0.2480   0.2485
  0.2496   0.2506   0.2512   0.2516   0.2529   0.2547   0.2552   0.2576
  0.2594   0.2610   0.2636   0.2639   0.2656   0.2665   0.2671   0.2691
  0.2697   0.2709   0.2716   0.2735   0.2745   0.2751   0.2760   0.2782
  0.2791   0.2805   0.2806   0.2829   0.2841   0.2871   0.2876   0.2894
  0.2908   0.2914   0.2924   0.2934   0.2941   0.2955   0.2971   0.2982
  0.2994   0.3010   0.3015   0.3026   0.3035   0.3047   0.3057   0.3071
  0.3082   0.3112   0.3133   0.3146   0.3150   0.3166   0.3193   0.3197
  0.3226   0.3241   0.3250   0.3269   0.3285   0.3292   0.3296   0.3316
  0.3336   0.3361   0.3364   0.3382   0.3393   0.3409   0.3413   0.3433
  0.3436   0.3446   0.3460   0.3474   0.3481   0.3489   0.3499   0.3516
  0.3524   0.3533   0.3538   0.3552   0.3573   0.3597   0.3602   0.3618
  0.3630   0.3639   0.3651   0.3668   0.3673   0.3679   0.3700   0.3703
  0.3716   0.3728   0.3753   0.3763   0.3770   0.3774   0.3783   0.3801
  0.3812   0.3816   0.3825   0.3839   0.3850   0.3857   0.3871   0.3885
  0.3892   0.3908   0.3911   0.3919   0.3926   0.3946   0.3954   0.3972
  0.3976   0.3985   0.3992   0.4004   0.4021   0.4032   0.4042   0.4054
  0.4081   0.4089   0.4099   0.4108   0.4129   0.4155   0.4161   0.4173
  0.4197   0.4210   0.4216   0.4225   0.4250   0.4264   0.4269   0.4277
  0.4290   0.4312   0.4314   0.4333   0.4351   0.4367   0.4386   0.4393
  0.4422   0.4429   0.4439   0.4450   0.4468   0.4476   0.4501   0.4509
  0.4514   0.4517   0.4533   0.4536   0.4541   0.4570   0.4574   0.4585
  0.4591   0.4613   0.4628   0.4636   0.4651   0.4657   0.4664   0.4675
  0.4692   0.4702   0.4709   0.4724   0.4733   0.4750   0.4758   0.4768
  0.4773   0.4785   0.4791   0.4807   0.4818   0.4828   0.4836   0.4857
  0.4862   0.4873   0.4883   0.4897   0.4912   0.4930   0.4941   0.4953
  0.4966   0.4973   0.4988   0.5001   0.5016   0.5032   0.5038   0.5051
  0.5069   0.5073   0.5075   0.5093   0.5103   0.5119   0.5129   0.5137
  0.5142   0.5166   0.5176   0.5195   0.5206   0.5216   0.5217   0.5225
  0.5242   0.5248   0.5255   0.5262   0.5273   0.5286   0.5292   0.5294
  0.5327   0.5334   0.5348   0.5363   0.5369   0.5372   0.5385   0.5401
  0.5411   0.5421   0.5433   0.5443   0.5451   0.5461   0.5475   0.5494
  0.5503   0.5521   0.5532   0.5547   0.5551   0.5558   0.5561   0.5584
  0.5588   0.5601   0.5620   0.5622   0.5639   0.5643   0.5657   0.5675
  0.5679   0.5684   0.5700   0.5703   0.5726   0.5730   0.5744   0.5750
  0.5784   0.5787   0.5796   0.5798   0.5816   0.5831   0.5851   0.5858
  0.5866   0.5897   0.5906   0.5912   0.5927   0.5936   0.5948   0.5974
  0.5983   0.5986   0.6007   0.6024   0.6037   0.6069   0.6081   0.6098
  0.6110   0.6124   0.6139   0.6156   0.6165   0.6184   0.6208   0.6217
  0.6234   0.6257   0.6268   0.6272   0.6285   0.6301   0.6306   0.6315
  0.6346   0.6357   0.6369   0.6388   0.6404   0.6421   0.6435   0.6444
  0.6459   0.6477   0.6486   0.6502   0.6516   0.6538   0.6553   0.6561
  0.6567   0.6573   0.6598   0.6621   0.6636   0.6651   0.6654   0.6660
  0.6676   0.6685   0.6698   0.6701   0.6711   0.6732   0.6744   0.6765
  0.6772   0.6784   0.6803   0.6820   0.6821   0.6831   0.6844   0.6854
  0.6859   0.6870   0.6898   0.6906   0.6918   0.6936   0.6939   0.6954
  0.6964   0.6968   0.6988   0.7004   0.7013   0.7026   0.7040   0.7042
  0.7051   0.7059   0.7075   0.7089   0.7104   0.7111   0.7126   0.7128
  0.7133   0.7142   0.7155   0.7158   0.7184   0.7199   0.7214   0.7218
  0.7228   0.7245   0.7263   0.7266   0.7270   0.7304   0.7310   0.7336
  0.7339   0.7344   0.7369   0.7387   0.7399   0.7418   0.7431   0.7438
  0.7453   0.7464   0.7485   0.7504   0.7522   0.7541   0.7555   0.7564
  0.7566   0.7594   0.7610   0.7629   0.7632   0.7656   0.7680   0.7690
  0.7718   0.7729   0.7740   0.7765   0.7772   0.7780   0.7790   0.7817
  0.7832   0.7852   0.7860   0.7902   0.7909   0.7938   0.7965   0.7977
  0.8008   0.8023   0.8032   0.8052   0.8085   0.8090   0.8116   0.8122
  0.8137   0.8144   0.8164   0.8168   0.8187   0.8196   0.8224   0.8236
  0.8254   0.8275   0.8302   0.8312   0.8329   0.8342   0.8359   0.8364
  0.8386   0.8397   0.8430   0.8438   0.8447   0.8456   0.8471   0.8484
  0.8496   0.8521   0.8541   0.8562   0.8579   0.8609   0.8615   0.8639
  0.8663   0.8680   0.8701   0.8729   0.8741   0.8764   0.8773   0.8785
  0.8802   0.8832   0.8839   0.8867   0.8882   0.8891   0.8914   0.8942
  0.8955   0.8983   0.8998   0.9021   0.9038   0.9053   0.9057   0.9095
  0.9125   0.9147   0.9150   0.9193   0.9214   0.9221   0.9225   0.9248
  0.9284   0.9284   0.9303   0.9332   0.9351   0.9383   0.9402   0.9423
  0.9447   0.9458   0.9496   0.9544   0.9555   0.9608   0.9619   0.9650
  0.9687   0.9698   0.9719   0.9754   0.9793   0.9811   0.9833   0.9857
  0.9890   0.9918   0.9934   0.9958   0.9980   1.0009   1.0019   1.0035
  1.0053   1.0096   1.0131   1.0181   1.0221   1.0237   1.0285   1.0326
  1.0365   1.0384   1.0424   1.0454   1.0478   1.0506   1.0549   1.0614
  1.0628   1.0673   1.0703   1.0728   1.0754   1.0803   1.0842   1.0902
  1.0919   1.0935   1.0973   1.1036   1.1093   1.1117   1.1171   1.1187
  1.1232   1.1309   1.1353   1.1356   1.1361   1.1396   1.1458   1.1497
  1.1563   1.1588   1.1605   1.1643   1.1678   1.1684   1.1697   1.1726
  1.1737   1.1790   1.1799   1.1823   1.1852   1.1900   1.1915   1.1931
  1.1948   1.1965   1.1993   1.2034   1.2045   1.2065   1.2088   1.2133
  1.2148   1.2194   1.2225   1.2283   1.2293   1.2351   1.2376   1.2436
  1.2443   1.2501   1.2537   1.2574   1.2586   1.2628   1.2657   1.2675
  1.2694   1.2711   1.2747   1.2799   1.2859   1.2875   1.2890   1.3001
  1.3082   1.3095   1.3151   1.3160   1.3220   1.3292   1.3347   1.3398
  1.3435   1.3462   1.3531   1.3553   1.3614   1.3649   1.3671   1.3712
  1.3762   1.3775   1.3807   1.3830   1.3901   1.3989   1.4066   1.4138
  1.4159   1.4202   1.4239   1.4288   1.4300   1.4396   1.4468   1.4502
  1.4536   1.4543   1.4615   1.4634   1.4666   1.4722   1.4778   1.4822
  1.4863   1.4994   1.5047   1.5103   1.5115   1.5233   1.5244   1.5317
  1.5428   1.5440   1.5504   1.5543   1.5593   1.5678   1.5719   1.5783
  1.5833   1.5979   1.6019   1.6063   1.6123   1.6202   1.6255   1.6297
  1.6351   1.6380   1.6454   1.6522   1.6579   1.6601   1.6661   1.6683
  1.6710   1.6742   1.6814   1.6854   1.6866   1.6900   1.6939   1.6992
  1.7065   1.7119   1.7136   1.7209   1.7225   1.7267   1.7312   1.7343
  1.7405   1.7474   1.7508   1.7543   1.7567   1.7587   1.7605   1.7656
  1.7722   1.7759   1.7802   1.7863   1.7920   1.7942   1.7945   1.7987
  1.8064   1.8078   1.8143   1.8166   1.8262   1.8329   1.8345   1.8414
  1.8450   1.8486   1.8556   1.8664   1.8779   1.8826   1.8911   1.8961
  1.9128   1.9169   1.9260   1.9509   1.9577   1.9666   1.9733   1.9928
  2.0039   2.0250   2.0360   2.0399   2.0547   2.0742   2.0956   2.1163
  2.2109   2.2652
 --------------------------------------------------------------
 
          Ground-State Mulliken Net Atomic Charges

     Atom                 Charge (a.u.)
  ----------------------------------------
      1 C                     0.294916
      2 C                     0.046655
      3 C                     0.006286
      4 C                    -0.165602
      5 C                    -0.024371
      6 C                     0.191361
      7 C                    -0.214108
      8 C                     0.206364
      9 C                     0.007270
     10 C                     0.083205
     11 C                    -0.203504
     12 C                    -0.077733
     13 C                     0.070633
     14 C                     0.145543
     15 C                     0.286272
     16 C                    -0.246891
     17 C                    -0.045629
     18 C                    -0.209490
     19 C                    -0.025086
     20 C                    -0.385646
     21 C                    -0.347728
     22 C                     0.160049
     23 C                     0.378380
     24 C                    -0.195633
     25 C                     0.137092
     26 C                    -0.024316
     27 C                    -0.094380
     28 C                    -0.102777
     29 C                    -0.066177
     30 C                    -0.418570
     31 C                     0.362753
     32 C                     0.110298
     33 C                     0.260346
     34 C                     0.101951
     35 C                     0.376370
     36 C                     0.186003
     37 C                     0.099202
     38 C                     0.204947
     39 C                     0.408520
     40 C                    -0.032392
     41 C                    -0.172078
     42 C                    -0.207412
     43 C                    -0.418307
     44 C                    -0.005733
     45 C                     0.038157
     46 C                    -0.352533
     47 C                    -0.099640
     48 C                    -0.063411
     49 C                    -0.230615
[...]
     57 C                     0.054058
     58 C                     0.107125
     59 C                     0.250651
     60 C                     0.054216
     61 C                    -0.059983
     62 C                    -0.028099
     63 C                    -0.293827
     64 C                     0.112421
     65 C                     0.045682
     66 C                    -0.131448
     67 C                    -0.155026
     68 C                     0.040823
     69 C                     0.043255
     70 C                    -0.067487
     71 C                    -0.226279
     72 C                    -0.286626
     73 C                    -0.349469
     74 C                     0.260570
     75 C                     0.186985
     76 C                     0.137109
     77 C                    -0.371338
     78 C                    -0.240604
     79 C                    -0.272380
     80 C                    -0.428940
     81 C                     0.270464
     82 C                     0.069318
     83 C                     0.235021
     84 C                    -0.386432
     85 C                    -0.203423
     86 C                    -0.258562
     87 C                    -0.231635
     88 C                    -0.387821
     89 C                    -0.081735
     90 C                     0.201627
     91 C                    -0.320372
     92 C                    -0.358407
     93 C                     0.093734
     94 C                     0.376188
     95 C                    -0.507733
     96 C                    -0.319312
     97 C                     0.138712
     98 C                     0.100804
     99 C                     0.072037
    100 C                     0.263085
    101 C                    -0.433816
    102 C                    -0.224183
    103 C                    -0.262987
    104 C                    -0.235244
    105 C                    -0.375438
    106 C                     0.346490
    107 C                    -0.451174
    108 C                    -0.262352
    109 C                    -0.275603
    110 C                    -0.377221
    111 C                     0.199935
    112 C                     0.008863
    113 C                     0.279567
    114 C                    -0.381962
    115 C                    -0.260681
    116 C                    -0.213989
    117 C                    -0.266471
    118 C                    -0.427296
    119 C                     0.112446
    120 C                     0.138365
    121 C                    -0.279424
    122 C                    -0.553123
    123 C                     0.398870
    124 C                     0.074525
    125 C                    -0.361930
    126 C                    -0.368793
    127 C                     0.159086
    128 C                    -0.052776
    129 C                    -0.326572
    130 C                    -0.007221
    131 C                     0.021560
    132 C                    -0.462779
    133 C                    -0.392037
    134 C                    -0.254410
    135 H                     0.227204
    136 H                     0.228747
    137 H                     0.263176
    138 H                     0.262534
    139 H                     0.209726
    140 H                     0.220657
    141 H                     0.257460
    142 H                     0.264233
    143 H                     0.211263
    144 H                     0.230078
    145 H                     0.225744
    146 H                     0.273683
    147 H                     0.270855
    148 H                     0.211015
    149 H                     0.231275
    150 H                     0.274178
    151 H                     0.264969
    152 H                     0.221982
    153 H                     0.230653
    154 H                     0.222988
    155 H                     0.270419
    156 H                     0.265036
    157 H                     0.210891
    158 H                     0.219041
    159 H                     0.272726
    160 H                     0.260800
    161 H                     0.233856
    162 H                     0.216517
    163 H                     0.224636
    164 H                     0.272012
    165 H                     0.257995
    166 H                     0.228619
    167 H                     0.218346
    168 H                     0.278138
    169 H                     0.257430
    170 H                     0.223013
  ----------------------------------------
  Sum of atomic charges =     0.000000

         TDA Excited State 24:  Mulliken Net Atomic Charges

     Atom                 Charge (a.u.)
  ----------------------------------------
      1 C                     0.295012
      2 C                     0.029808
      3 C                    -0.013319
      4 C                    -0.175023
      5 C                    -0.052201
      6 C                     0.192883
      7 C                    -0.206248
      8 C                     0.211492
      9 C                     0.004621
     10 C                     0.068385
     11 C                    -0.227439
     12 C                    -0.070550
     13 C                     0.066777
     14 C                     0.138978
     15 C                     0.283658
     16 C                    -0.257099
     17 C                    -0.048340
     18 C                    -0.199141
     19 C                    -0.033851
     20 C                    -0.378341
     21 C                    -0.358392
     22 C                     0.151195
     23 C                     0.371249
     24 C                    -0.205571
     25 C                     0.125336
     26 C                    -0.037378
     27 C                    -0.126176
     28 C                    -0.112249
     29 C                    -0.080801
     30 C                    -0.451339
     31 C                     0.383007
     32 C                     0.122911
     33 C                     0.268093
     34 C                     0.108487
     35 C                     0.393109
     36 C                     0.183761
     37 C                     0.092831
     38 C                     0.211790
     39 C                     0.428456
     40 C                    -0.037408
     41 C                    -0.195165
     42 C                    -0.200902
     43 C                    -0.429972
     44 C                    -0.018392
     45 C                     0.027660
     46 C                    -0.358901
     47 C                    -0.094187
     48 C                    -0.093062
     49 C                    -0.240755
     50 C                    -0.090849
     51 C                     0.084699
     52 C                     0.040355
     53 C                    -0.005554
     54 C                     0.381647
     55 C                    -0.248353
     56 C                     0.144847
     57 C                     0.053868
     58 C                     0.069107
     59 C                     0.236253
     60 C                     0.047405
     61 C                    -0.054804
     62 C                     0.024270
     63 C                    -0.293176
     64 C                     0.093559
     65 C                     0.022616
     66 C                    -0.127085
     67 C                    -0.170231
     68 C                     0.025762
     69 C                     0.019695
     70 C                    -0.055052
     71 C                    -0.224756
     72 C                    -0.286416
     73 C                    -0.347563
     74 C                     0.262055
     75 C                     0.200050
     76 C                     0.139018
     77 C                    -0.361639
     78 C                    -0.233439
     79 C                    -0.269512
     80 C                    -0.417244
     81 C                     0.271269
     82 C                     0.087921
     83 C                     0.238434
     84 C                    -0.383406
     85 C                    -0.203048
     86 C                    -0.254928
     87 C                    -0.231459
     88 C                    -0.383287
     89 C                    -0.067449
     90 C                     0.204514
     91 C                    -0.315090
     92 C                    -0.357763
     93 C                     0.101917
     94 C                     0.377748
     95 C                    -0.508916
     96 C                    -0.317483
     97 C                     0.139275
     98 C                     0.102473
     99 C                     0.082672
    100 C                     0.264307
    101 C                    -0.432786
    102 C                    -0.223889
    103 C                    -0.261479
    104 C                    -0.235142
    105 C                    -0.373599
    106 C                     0.348380
    107 C                    -0.444542
    108 C                    -0.255408
    109 C                    -0.274150
    110 C                    -0.368749
    111 C                     0.200104
    112 C                     0.024170
    113 C                     0.281389
    114 C                    -0.380282
    115 C                    -0.260652
    116 C                    -0.212701
    117 C                    -0.265757
    118 C                    -0.426542
    119 C                     0.121166
    120 C                     0.143530
    121 C                    -0.271314
    122 C                    -0.551761
    123 C                     0.408776
    124 C                     0.078717
    125 C                    -0.361456
    126 C                    -0.367405
    127 C                     0.160646
    128 C                    -0.049800
    129 C                    -0.328046
    130 C                    -0.008970
    131 C                     0.020444
    132 C                    -0.464448
    133 C                    -0.391176
    134 C                    -0.254199
    135 H                     0.227211
    136 H                     0.228794
    137 H                     0.263157
    138 H                     0.262539
    139 H                     0.209746
    140 H                     0.220682
    141 H                     0.257481
    142 H                     0.264302
    143 H                     0.211351
    144 H                     0.230080
    145 H                     0.225797
    146 H                     0.273664
    147 H                     0.270889
    148 H                     0.211039
    149 H                     0.231280
    150 H                     0.274190
    151 H                     0.264989
    152 H                     0.222004
    153 H                     0.230653
    154 H                     0.223018
    155 H                     0.270411
    156 H                     0.265041
    157 H                     0.210901
    158 H                     0.219045
    159 H                     0.272718
    160 H                     0.260719
    161 H                     0.233896
    162 H                     0.216516
    163 H                     0.224698
    164 H                     0.272022
    165 H                     0.257996
    166 H                     0.228614
    167 H                     0.218303
    168 H                     0.278175
    169 H                     0.257441
    170 H                     0.223032
  ----------------------------------------
  Sum of atomic charges =     0.000000

         TDA Excited State 25:  Mulliken Net Atomic Charges

     Atom                 Charge (a.u.)
  ----------------------------------------
      1 C                     0.287284
      2 C                     0.038013
      3 C                     0.005264
      4 C                    -0.183773
      5 C                    -0.038469
      6 C                     0.257330
      7 C                    -0.239053
      8 C                     0.198520
      9 C                     0.037680
     10 C                     0.079456
     11 C                    -0.176559
     12 C                    -0.077032
     13 C                     0.076069
     14 C                     0.154658
     15 C                     0.280637
     16 C                    -0.235436
     17 C                    -0.056184
     18 C                    -0.181665
     19 C                    -0.041587
     20 C                    -0.418595
     21 C                    -0.375092
     22 C                     0.157768
     23 C                     0.367861
     24 C                    -0.188180
     25 C                     0.133090
     26 C                    -0.032429
     27 C                    -0.098086
     28 C                    -0.105272
     29 C                    -0.081267
     30 C                    -0.430416
     31 C                     0.379825
     32 C                     0.122340
     33 C                     0.276872
     34 C                     0.126007
     35 C                     0.416494
     36 C                     0.192384
     37 C                     0.108744
     38 C                     0.220749
     39 C                     0.436620
     40 C                    -0.017496
     41 C                    -0.178535
     42 C                    -0.231837
     43 C                    -0.437658
     44 C                    -0.019558
     45 C                     0.009349
     46 C                    -0.351172
     47 C                    -0.097395
     48 C                    -0.074052
     49 C                    -0.248986
     50 C                    -0.072990
     51 C                     0.082440
     52 C                     0.026727
     53 C                    -0.008471
     54 C                     0.377227
     55 C                    -0.263518
     56 C                     0.146041
     57 C                     0.068664
     58 C                     0.115923
     59 C                     0.236465
     60 C                     0.061489
     61 C                    -0.091438
     62 C                    -0.043558
     63 C                    -0.285297
     64 C                     0.102575
     65 C                     0.017822
     66 C                    -0.137149
     67 C                    -0.171620
     68 C                     0.037942
     69 C                     0.051683
     70 C                    -0.083933
     71 C                    -0.226292
     72 C                    -0.286621
     73 C                    -0.349512
     74 C                     0.260516
     75 C                     0.187219
     76 C                     0.136701
     77 C                    -0.371553
     78 C                    -0.241558
     79 C                    -0.272112
     80 C                    -0.429919
     81 C                     0.270404
     82 C                     0.067709
     83 C                     0.234807
     84 C                    -0.386741
     85 C                    -0.203449
     86 C                    -0.258915
     87 C                    -0.231728
     88 C                    -0.387777
     89 C                    -0.084348
     90 C                     0.201546
     91 C                    -0.321494
     92 C                    -0.358604
     93 C                     0.092689
     94 C                     0.376073
     95 C                    -0.510453
     96 C                    -0.320004
     97 C                     0.138498
     98 C                     0.101234
     99 C                     0.071568
    100 C                     0.263078
    101 C                    -0.433846
    102 C                    -0.224190
    103 C                    -0.263011
    104 C                    -0.235249
    105 C                    -0.375482
    106 C                     0.346191
    107 C                    -0.451470
    108 C                    -0.263101
    109 C                    -0.275585
    110 C                    -0.377841
    111 C                     0.199809
    112 C                     0.007692
    113 C                     0.279478
    114 C                    -0.382136
    115 C                    -0.260660
    116 C                    -0.214040
    117 C                    -0.266508
    118 C                    -0.427313
    119 C                     0.111102
    120 C                     0.138950
    121 C                    -0.279696
    122 C                    -0.552721
    123 C                     0.399357
    124 C                     0.074749
    125 C                    -0.365249
    126 C                    -0.369913
    127 C                     0.158847
    128 C                    -0.052100
    129 C                    -0.330362
    130 C                    -0.010462
    131 C                     0.019353
    132 C                    -0.465128
    133 C                    -0.392031
    134 C                    -0.254441
    135 H                     0.227204
    136 H                     0.228749
    137 H                     0.263181
    138 H                     0.262533
    139 H                     0.209727
    140 H                     0.220655
    141 H                     0.257459
    142 H                     0.264241
    143 H                     0.211261
    144 H                     0.230080
    145 H                     0.225752
    146 H                     0.273608
    147 H                     0.270856
    148 H                     0.211013
    149 H                     0.231276
    150 H                     0.274179
    151 H                     0.264970
    152 H                     0.221981
    153 H                     0.230653
    154 H                     0.222987
    155 H                     0.270420
    156 H                     0.265036
    157 H                     0.210890
    158 H                     0.219040
    159 H                     0.272725
    160 H                     0.260805
    161 H                     0.233854
    162 H                     0.216515
    163 H                     0.224629
    164 H                     0.272011
    165 H                     0.257995
    166 H                     0.228616
    167 H                     0.218298
    168 H                     0.278142
    169 H                     0.257430
    170 H                     0.223013
  ----------------------------------------
  Sum of atomic charges =     0.000000

 -----------------------------------------------------------------
                    Cartesian Multipole Moments
 -----------------------------------------------------------------
    Charge (ESU x 10^10)
                -0.0000
    Dipole Moment (Debye)
         X      -1.1032      Y       0.4574      Z       1.1849
       Tot       1.6823
    Quadrupole Moments (Debye-Ang)
        XX    -824.8650     XY     -12.4076     YY    -709.9424
        XZ      36.9657     YZ      46.6623     ZZ    -643.3853
    Octopole Moments (Debye-Ang^2)
       XXX  -93032.7342    XXY  -20831.8836    XYY  -28996.3608
       YYY  -55994.1221    XXZ  -26343.4154    XYZ    1539.1619
       YYZ  -25591.3251    XZZ  -24664.2816    YZZ  -16090.3776
       ZZZ  -76200.4201
    Hexadecapole Moments (Debye-Ang^3)
      XXXX ************   XXXY ************   XXYY ************
      XYYY ************   YYYY ************   XXXZ ************
      XXYZ -661600.5289   XYYZ ************   YYYZ ************
      XXZZ ************   XYZZ -618804.2585   YYZZ ************
      XZZZ ************   YZZZ ************   ZZZZ ************
 -----------------------------------------------------------------
 Total job time:  11816.43s(wall), 259723.54s(cpu) 
 Fri Jun 21 03:06:49 2024

        *************************************************************
        *                                                           *
        *  Thank you very much for using Q-Chem.  Have a nice day.  *
        *                                                           *
        *************************************************************


remove work dirs /tmp/xs13_9697723/qchem379635.0 -- /tmp/xs13_9697723/qchem379635.-1
rm -rf /tmp/xs13_9697723/qchem379635
