 Entering Gaussian System, Link 0=g16
 Input=THF.gjf
 Output=THF.log
 Initial command:
 /gpfsnyu/packages/b.01/g16/l1.exe "/tmp/Gau-17714.inp" -scrdir="/tmp/"
 Entering Link 1 = /gpfsnyu/packages/b.01/g16/l1.exe PID=     17715.
  
 Copyright (c) 1988-2017, Gaussian, Inc.  All Rights Reserved.
  
 This is part of the Gaussian(R) 16 program.  It is based on
 the Gaussian(R) 09 system (copyright 2009, Gaussian, Inc.),
 the Gaussian(R) 03 system (copyright 2003, Gaussian, Inc.),
 the Gaussian(R) 98 system (copyright 1998, Gaussian, Inc.),
 the Gaussian(R) 94 system (copyright 1995, Gaussian, Inc.),
 the Gaussian 92(TM) system (copyright 1992, Gaussian, Inc.),
 the Gaussian 90(TM) system (copyright 1990, Gaussian, Inc.),
 the Gaussian 88(TM) system (copyright 1988, Gaussian, Inc.),
 the Gaussian 86(TM) system (copyright 1986, Carnegie Mellon
 University), and the Gaussian 82(TM) system (copyright 1983,
 Carnegie Mellon University). Gaussian is a federally registered
 trademark of Gaussian, Inc.
  
 This software contains proprietary and confidential information,
 including trade secrets, belonging to Gaussian, Inc.
  
 This software is provided under written license and may be
 used, copied, transmitted, or stored only in accord with that
 written license.
  
 The following legend is applicable only to US Government
 contracts under FAR:
  
                    RESTRICTED RIGHTS LEGEND
  
 Use, reproduction and disclosure by the US Government is
 subject to restrictions as set forth in subparagraphs (a)
 and (c) of the Commercial Computer Software - Restricted
 Rights clause in FAR 52.227-19.
  
 Gaussian, Inc.
 340 Quinnipiac St., Bldg. 40, Wallingford CT 06492
  
  
 ---------------------------------------------------------------
 Warning -- This program may not be used in any manner that
 competes with the business of Gaussian, Inc. or will provide
 assistance to any competitor of Gaussian, Inc.  The licensee
 of this program is prohibited from giving any competitor of
 Gaussian, Inc. access to this program.  By using this program,
 the user acknowledges that Gaussian, Inc. is engaged in the
 business of creating and licensing software in the field of
 computational chemistry and represents and warrants to the
 licensee that it is not a competitor of Gaussian, Inc. and that
 it will not use this program in any manner prohibited above.
 ---------------------------------------------------------------
  

 Cite this work as:
 Gaussian 16, Revision B.01,
 M. J. Frisch, G. W. Trucks, H. B. Schlegel, G. E. Scuseria, 
 M. A. Robb, J. R. Cheeseman, G. Scalmani, V. Barone, 
 G. A. Petersson, H. Nakatsuji, X. Li, M. Caricato, A. V. Marenich, 
 J. Bloino, B. G. Janesko, R. Gomperts, B. Mennucci, H. P. Hratchian, 
 J. V. Ortiz, A. F. Izmaylov, J. L. Sonnenberg, D. Williams-Young, 
 F. Ding, F. Lipparini, F. Egidi, J. Goings, B. Peng, A. Petrone, 
 T. Henderson, D. Ranasinghe, V. G. Zakrzewski, J. Gao, N. Rega, 
 G. Zheng, W. Liang, M. Hada, M. Ehara, K. Toyota, R. Fukuda, 
 J. Hasegawa, M. Ishida, T. Nakajima, Y. Honda, O. Kitao, H. Nakai, 
 T. Vreven, K. Throssell, J. A. Montgomery, Jr., J. E. Peralta, 
 F. Ogliaro, M. J. Bearpark, J. J. Heyd, E. N. Brothers, K. N. Kudin, 
 V. N. Staroverov, T. A. Keith, R. Kobayashi, J. Normand, 
 K. Raghavachari, A. P. Rendell, J. C. Burant, S. S. Iyengar, 
 J. Tomasi, M. Cossi, J. M. Millam, M. Klene, C. Adamo, R. Cammi, 
 J. W. Ochterski, R. L. Martin, K. Morokuma, O. Farkas, 
 J. B. Foresman, and D. J. Fox, Gaussian, Inc., Wallingford CT, 2016.
 
 ******************************************
 Gaussian 16:  ES64L-G16RevB.01 20-Dec-2017
                 5-Aug-2020 
 ******************************************
 %chk=THF.chk
 %mem=2gb
 %nprocshared=8
 Will use up to    8 processors via shared memory.
 ------------------
 # b3lyp/6-31g* opt
 ------------------
 1/18=20,19=15,26=3,38=1/1,3;
 2/9=110,12=2,17=6,18=5,40=1/2;
 3/5=1,6=6,7=1,11=2,25=1,30=1,71=1,74=-5/1,2,3;
 4//1;
 5/5=2,38=5/2;
 6/7=2,8=2,9=2,10=2,28=1/1;
 7//1,2,3,16;
 1/18=20,19=15,26=3/3(2);
 2/9=110/2;
 99//99;
 2/9=110/2;
 3/5=1,6=6,7=1,11=2,25=1,30=1,71=1,74=-5/1,2,3;
 4/5=5,16=3,69=1/1;
 5/5=2,38=5/2;
 7//1,2,3,16;
 1/18=20,19=15,26=3/3(-5);
 2/9=110/2;
 6/7=2,8=2,9=2,10=2,19=2,28=1/1;
 99/9=1/99;
 ---
 opt
 ---
 Symbolic Z-matrix:
 Charge =  0 Multiplicity = 1
 C1                    28.086    32.967    3.199 
 H1                    27.645    32.261    3.907 
 H2                    27.764    34.002    3.343 
 C2                    27.85     32.533    1.729 
 H3                    26.946    33.026    1.366 
 H4                    27.847    31.455    1.551 
 C3                    29.111    33.128    0.99 
 H5                    28.899    34.078    0.494 
 H6                    29.486    32.455    0.217 
 C4                    30.121    33.421    2.165 
 H7                    30.358    34.484    2.255 
 H8                    31.024    32.825    2.009 
 O1                    29.495    32.952    3.366 
 

 GradGradGradGradGradGradGradGradGradGradGradGradGradGradGradGradGradGrad
 Berny optimization.
 Initialization pass.
                           ----------------------------
                           !    Initial Parameters    !
                           ! (Angstroms and Degrees)  !
 --------------------------                            --------------------------
 ! Name  Definition              Value          Derivative Info.                !
 --------------------------------------------------------------------------------
 ! R1    R(1,2)                  1.0928         estimate D2E/DX2                !
 ! R2    R(1,3)                  1.0935         estimate D2E/DX2                !
 ! R3    R(1,4)                  1.5508         estimate D2E/DX2                !
 ! R4    R(1,13)                 1.4189         estimate D2E/DX2                !
 ! R5    R(4,5)                  1.0918         estimate D2E/DX2                !
 ! R6    R(4,6)                  1.0926         estimate D2E/DX2                !
 ! R7    R(4,7)                  1.5781         estimate D2E/DX2                !
 ! R8    R(7,8)                  1.0925         estimate D2E/DX2                !
 ! R9    R(7,9)                  1.0914         estimate D2E/DX2                !
 ! R10   R(7,10)                 1.5769         estimate D2E/DX2                !
 ! R11   R(10,11)                1.0928         estimate D2E/DX2                !
 ! R12   R(10,12)                1.0931         estimate D2E/DX2                !
 ! R13   R(10,13)                1.4333         estimate D2E/DX2                !
 ! A1    A(2,1,3)              114.0389         estimate D2E/DX2                !
 ! A2    A(2,1,4)              111.8339         estimate D2E/DX2                !
 ! A3    A(2,1,13)             108.5207         estimate D2E/DX2                !
 ! A4    A(3,1,4)              110.1766         estimate D2E/DX2                !
 ! A5    A(3,1,13)             106.6738         estimate D2E/DX2                !
 ! A6    A(4,1,13)             105.0533         estimate D2E/DX2                !
 ! A7    A(1,4,5)              108.3482         estimate D2E/DX2                !
 ! A8    A(1,4,6)              115.5286         estimate D2E/DX2                !
 ! A9    A(1,4,7)              102.5198         estimate D2E/DX2                !
 ! A10   A(5,4,6)              112.8969         estimate D2E/DX2                !
 ! A11   A(5,4,7)              109.6139         estimate D2E/DX2                !
 ! A12   A(6,4,7)              107.3321         estimate D2E/DX2                !
 ! A13   A(4,7,8)              112.6703         estimate D2E/DX2                !
 ! A14   A(4,7,9)              111.9471         estimate D2E/DX2                !
 ! A15   A(4,7,10)             103.4695         estimate D2E/DX2                !
 ! A16   A(8,7,9)              106.3406         estimate D2E/DX2                !
 ! A17   A(8,7,10)             107.5192         estimate D2E/DX2                !
 ! A18   A(9,7,10)             114.9781         estimate D2E/DX2                !
 ! A19   A(7,10,11)            112.3965         estimate D2E/DX2                !
 ! A20   A(7,10,12)            108.7506         estimate D2E/DX2                !
 ! A21   A(7,10,13)            106.4894         estimate D2E/DX2                !
 ! A22   A(11,10,12)           111.2813         estimate D2E/DX2                !
 ! A23   A(11,10,13)           110.1214         estimate D2E/DX2                !
 ! A24   A(12,10,13)           107.5758         estimate D2E/DX2                !
 ! A25   A(1,13,10)            109.3675         estimate D2E/DX2                !
 ! D1    D(2,1,4,5)             93.6386         estimate D2E/DX2                !
 ! D2    D(2,1,4,6)            -34.1432         estimate D2E/DX2                !
 ! D3    D(2,1,4,7)           -150.5176         estimate D2E/DX2                !
 ! D4    D(3,1,4,5)            -34.2954         estimate D2E/DX2                !
 ! D5    D(3,1,4,6)           -162.0772         estimate D2E/DX2                !
 ! D6    D(3,1,4,7)             81.5484         estimate D2E/DX2                !
 ! D7    D(13,1,4,5)          -148.8381         estimate D2E/DX2                !
 ! D8    D(13,1,4,6)            83.3801         estimate D2E/DX2                !
 ! D9    D(13,1,4,7)           -32.9943         estimate D2E/DX2                !
 ! D10   D(2,1,13,10)          157.2939         estimate D2E/DX2                !
 ! D11   D(3,1,13,10)          -79.4214         estimate D2E/DX2                !
 ! D12   D(4,1,13,10)           37.5407         estimate D2E/DX2                !
 ! D13   D(1,4,7,8)            -98.4897         estimate D2E/DX2                !
 ! D14   D(1,4,7,9)            141.7059         estimate D2E/DX2                !
 ! D15   D(1,4,7,10)            17.3276         estimate D2E/DX2                !
 ! D16   D(5,4,7,8)             16.4367         estimate D2E/DX2                !
 ! D17   D(5,4,7,9)           -103.3677         estimate D2E/DX2                !
 ! D18   D(5,4,7,10)           132.254          estimate D2E/DX2                !
 ! D19   D(6,4,7,8)            139.3861         estimate D2E/DX2                !
 ! D20   D(6,4,7,9)             19.5817         estimate D2E/DX2                !
 ! D21   D(6,4,7,10)          -104.7966         estimate D2E/DX2                !
 ! D22   D(4,7,10,11)         -117.3253         estimate D2E/DX2                !
 ! D23   D(4,7,10,12)          119.0015         estimate D2E/DX2                !
 ! D24   D(4,7,10,13)            3.3399         estimate D2E/DX2                !
 ! D25   D(8,7,10,11)            2.095          estimate D2E/DX2                !
 ! D26   D(8,7,10,12)         -121.5781         estimate D2E/DX2                !
 ! D27   D(8,7,10,13)          122.7603         estimate D2E/DX2                !
 ! D28   D(9,7,10,11)          120.2933         estimate D2E/DX2                !
 ! D29   D(9,7,10,12)           -3.3798         estimate D2E/DX2                !
 ! D30   D(9,7,10,13)         -119.0414         estimate D2E/DX2                !
 ! D31   D(7,10,13,1)          -25.5899         estimate D2E/DX2                !
 ! D32   D(11,10,13,1)          96.5261         estimate D2E/DX2                !
 ! D33   D(12,10,13,1)        -142.0398         estimate D2E/DX2                !
 --------------------------------------------------------------------------------
 Trust Radius=3.00D-01 FncErr=1.00D-07 GrdErr=1.00D-06 EigMax=2.50D+02 EigMin=1.00D-04
 Number of steps in this run=     81 maximum allowed number of steps=    100.
 GradGradGradGradGradGradGradGradGradGradGradGradGradGradGradGradGradGrad

                          Input orientation:                          
 ---------------------------------------------------------------------
 Center     Atomic      Atomic             Coordinates (Angstroms)
 Number     Number       Type             X           Y           Z
 ---------------------------------------------------------------------
      1          6           0       28.086000   32.967000    3.199000
      2          1           0       27.645000   32.261000    3.907000
      3          1           0       27.764000   34.002000    3.343000
      4          6           0       27.850000   32.533000    1.729000
      5          1           0       26.946000   33.026000    1.366000
      6          1           0       27.847000   31.455000    1.551000
      7          6           0       29.111000   33.128000    0.990000
      8          1           0       28.899000   34.078000    0.494000
      9          1           0       29.486000   32.455000    0.217000
     10          6           0       30.121000   33.421000    2.165000
     11          1           0       30.358000   34.484000    2.255000
     12          1           0       31.024000   32.825000    2.009000
     13          8           0       29.495000   32.952000    3.366000
 ---------------------------------------------------------------------
                    Distance matrix (angstroms):
                    1          2          3          4          5
     1  C    0.000000
     2  H    1.092786   0.000000
     3  H    1.093456   1.833941   0.000000
     4  C    1.550791   2.204471   2.184114   0.000000
     5  H    2.159391   2.744177   2.351644   1.091803   0.000000
     6  H    2.249260   2.498235   3.115343   1.092601   1.820458
     7  C    2.440538   3.377830   2.848665   1.578058   2.199774
     8  H    3.035180   4.064797   3.067703   2.238895   2.383547
     9  H    3.333837   4.128319   3.889778   2.229063   2.845671
    10  C    2.327337   3.242027   2.698276   2.477111   3.297734
    11  H    2.890399   3.877009   2.853928   3.220736   3.815472
    12  H    3.173028   3.916394   3.713824   3.199678   4.133272
    13  O    1.418942   2.047599   2.024695   2.358253   3.240814
                    6          7          8          9         10
     6  H    0.000000
     7  C    2.170564   0.000000
     8  H    3.017297   1.092456   0.000000
     9  H    2.337922   1.091367   1.747978   0.000000
    10  C    3.068098   1.576887   2.171906   2.265190   0.000000
    11  H    3.996946   2.234719   2.322636   3.005107   1.092812
    12  H    3.489985   2.188547   2.894971   2.390315   1.093143
    13  O    2.872479   2.413257   3.141891   3.187992   1.433261
                   11         12         13
    11  H    0.000000
    12  H    1.804537   0.000000
    13  O    2.079931   2.048272   0.000000
 Stoichiometry    C4H8O
 Framework group  C1[X(C4H8O)]
 Deg. of freedom    33
 Full point group                 C1      NOp   1
 Largest Abelian subgroup         C1      NOp   1
 Largest concise Abelian subgroup C1      NOp   1
                         Standard orientation:                         
 ---------------------------------------------------------------------
 Center     Atomic      Atomic             Coordinates (Angstroms)
 Number     Number       Type             X           Y           Z
 ---------------------------------------------------------------------
      1          6           0       -1.168797   -0.416642    0.193691
      2          1           0       -2.059316   -0.726984   -0.358437
      3          1           0       -1.251332   -0.538931    1.277148
      4          6           0       -0.754472    1.037616   -0.150433
      5          1           0       -1.210034    1.707183    0.581808
      6          1           0       -0.937657    1.347847   -1.181925
      7          6           0        0.809107    1.006879    0.060613
      8          1           0        1.110624    1.403315    1.032922
      9          1           0        1.333704    1.601295   -0.689421
     10          6           0        1.151140   -0.532423    0.048823
     11          1           0        1.569273   -0.873336    0.999181
     12          1           0        1.834277   -0.734249   -0.780364
     13          8           0       -0.076426   -1.219839   -0.224635
 ---------------------------------------------------------------------
 Rotational constants (GHZ):           6.9755703           6.8283478           3.8900068
 Standard basis: 6-31G(d) (6D, 7F)
 There are    91 symmetry adapted cartesian basis functions of A   symmetry.
 There are    91 symmetry adapted basis functions of A   symmetry.
    91 basis functions,   172 primitive gaussians,    91 cartesian basis functions
    20 alpha electrons       20 beta electrons
       nuclear repulsion energy       188.8568998384 Hartrees.
 NAtoms=   13 NActive=   13 NUniq=   13 SFac= 1.00D+00 NAtFMM=   60 NAOKFM=F Big=F
 Integral buffers will be    131072 words long.
 Raffenetti 2 integral format.
 Two-electron integral symmetry is turned on.
 One-electron integrals computed using PRISM.
 NBasis=    91 RedAO= T EigKep=  3.64D-03  NBF=    91
 NBsUse=    91 1.00D-06 EigRej= -1.00D+00 NBFU=    91
 ExpMin= 1.61D-01 ExpMax= 5.48D+03 ExpMxC= 8.25D+02 IAcc=3 IRadAn=         5 AccDes= 0.00D+00
 Harris functional with IExCor=  402 and IRadAn=       5 diagonalized for initial guess.
 HarFok:  IExCor=  402 AccDes= 0.00D+00 IRadAn=         5 IDoV= 1 UseB2=F ITyADJ=14
 ICtDFT=  3500011 ScaDFX=  1.000000  1.000000  1.000000  1.000000
 FoFCou: FMM=F IPFlag=           0 FMFlag=      100000 FMFlg1=           0
         NFxFlg=           0 DoJE=T BraDBF=F KetDBF=T FulRan=T
         wScrn=  0.000000 ICntrl=       500 IOpCl=  0 I1Cent=   200000004 NGrid=           0
         NMat0=    1 NMatS0=      1 NMatT0=    0 NMatD0=    1 NMtDS0=    0 NMtDT0=    0
 Petite list used in FoFCou.
 Requested convergence on RMS density matrix=1.00D-08 within 128 cycles.
 Requested convergence on MAX density matrix=1.00D-06.
 Requested convergence on             energy=1.00D-06.
 No special actions if energy rises.
 Integral accuracy reduced to 1.0D-05 until final iterations.
 Initial convergence to 1.0D-05 achieved.  Increase integral accuracy.
 SCF Done:  E(RB3LYP) =  -232.443281160     A.U. after   12 cycles
            NFock= 12  Conv=0.56D-08     -V/T= 2.0096

 **********************************************************************

            Population analysis using the SCF Density.

 **********************************************************************

 Orbital symmetries:
       Occupied  (A) (A) (A) (A) (A) (A) (A) (A) (A) (A) (A) (A)
                 (A) (A) (A) (A) (A) (A) (A) (A)
       Virtual   (A) (A) (A) (A) (A) (A) (A) (A) (A) (A) (A) (A)
                 (A) (A) (A) (A) (A) (A) (A) (A) (A) (A) (A) (A)
                 (A) (A) (A) (A) (A) (A) (A) (A) (A) (A) (A) (A)
                 (A) (A) (A) (A) (A) (A) (A) (A) (A) (A) (A) (A)
                 (A) (A) (A) (A) (A) (A) (A) (A) (A) (A) (A) (A)
                 (A) (A) (A) (A) (A) (A) (A) (A) (A) (A) (A)
 The electronic state is 1-A.
 Alpha  occ. eigenvalues --  -19.13099 -10.22454 -10.22404 -10.18598 -10.18568
 Alpha  occ. eigenvalues --   -1.01999  -0.76649  -0.72889  -0.59001  -0.58725
 Alpha  occ. eigenvalues --   -0.49550  -0.47263  -0.44245  -0.41692  -0.40307
 Alpha  occ. eigenvalues --   -0.34502  -0.33741  -0.33251  -0.30056  -0.24171
 Alpha virt. eigenvalues --    0.08276   0.10670   0.13813   0.14425   0.15145
 Alpha virt. eigenvalues --    0.15714   0.16987   0.18877   0.20695   0.22017
 Alpha virt. eigenvalues --    0.24329   0.27494   0.30773   0.51372   0.53981
 Alpha virt. eigenvalues --    0.55928   0.56675   0.56984   0.58545   0.62409
 Alpha virt. eigenvalues --    0.63259   0.68974   0.73625   0.78679   0.81273
 Alpha virt. eigenvalues --    0.84332   0.85472   0.86555   0.87691   0.90659
 Alpha virt. eigenvalues --    0.92056   0.92863   0.95453   0.96893   1.06770
 Alpha virt. eigenvalues --    1.09703   1.22302   1.29567   1.36222   1.40172
 Alpha virt. eigenvalues --    1.47277   1.63474   1.65133   1.76272   1.79616
 Alpha virt. eigenvalues --    1.81889   1.84355   1.89922   1.94144   1.97727
 Alpha virt. eigenvalues --    2.03032   2.09343   2.10310   2.11990   2.21682
 Alpha virt. eigenvalues --    2.23495   2.29343   2.35892   2.42787   2.47103
 Alpha virt. eigenvalues --    2.50274   2.58930   2.65034   2.68477   2.72901
 Alpha virt. eigenvalues --    2.97099   3.94323   4.15318   4.22902   4.42959
 Alpha virt. eigenvalues --    4.56855
          Condensed to atoms (all electrons):
               1          2          3          4          5          6
     1  C    4.824495   0.378776   0.364998   0.358164  -0.030383  -0.026730
     2  H    0.378776   0.576574  -0.042500  -0.031788   0.002096  -0.006282
     3  H    0.364998  -0.042500   0.650118  -0.050575  -0.001448   0.004706
     4  C    0.358164  -0.031788  -0.050575   5.089026   0.353422   0.375910
     5  H   -0.030383   0.002096  -0.001448   0.353422   0.591709  -0.028787
     6  H   -0.026730  -0.006282   0.004706   0.375910  -0.028787   0.568312
     7  C   -0.065189   0.004828  -0.005225   0.372966  -0.032604  -0.038445
     8  H    0.003214  -0.000132   0.001315  -0.030557  -0.007043   0.004385
     9  H    0.003752  -0.000150  -0.000021  -0.027280   0.003099  -0.007896
    10  C   -0.064581   0.006515   0.000024  -0.071386   0.005535   0.002053
    11  H   -0.000591  -0.000430   0.005802   0.002221   0.000164  -0.000006
    12  H    0.006919  -0.000149  -0.000648   0.002405  -0.000206  -0.000051
    13  O    0.264627  -0.034888  -0.050459  -0.053736   0.003605   0.001985
               7          8          9         10         11         12
     1  C   -0.065189   0.003214   0.003752  -0.064581  -0.000591   0.006919
     2  H    0.004828  -0.000132  -0.000150   0.006515  -0.000430  -0.000149
     3  H   -0.005225   0.001315  -0.000021   0.000024   0.005802  -0.000648
     4  C    0.372966  -0.030557  -0.027280  -0.071386   0.002221   0.002405
     5  H   -0.032604  -0.007043   0.003099   0.005535   0.000164  -0.000206
     6  H   -0.038445   0.004385  -0.007896   0.002053  -0.000006  -0.000051
     7  C    5.137572   0.367503   0.369824   0.341849  -0.047098  -0.031144
     8  H    0.367503   0.591190  -0.038152  -0.033224  -0.006254   0.004219
     9  H    0.369824  -0.038152   0.573586  -0.023679   0.003979  -0.007706
    10  C    0.341849  -0.033224  -0.023679   4.827823   0.369548   0.375463
    11  H   -0.047098  -0.006254   0.003979   0.369548   0.636028  -0.049627
    12  H   -0.031144   0.004219  -0.007706   0.375463  -0.049627   0.596658
    13  O   -0.052041   0.001738   0.002395   0.277653  -0.044616  -0.038023
              13
     1  C    0.264627
     2  H   -0.034888
     3  H   -0.050459
     4  C   -0.053736
     5  H    0.003605
     6  H    0.001985
     7  C   -0.052041
     8  H    0.001738
     9  H    0.002395
    10  C    0.277653
    11  H   -0.044616
    12  H   -0.038023
    13  O    8.205049
 Mulliken charges:
               1
     1  C   -0.017472
     2  H    0.147529
     3  H    0.123913
     4  C   -0.288792
     5  H    0.140842
     6  H    0.150844
     7  C   -0.322796
     8  H    0.141797
     9  H    0.148247
    10  C   -0.013593
    11  H    0.130880
    12  H    0.141891
    13  O   -0.483291
 Sum of Mulliken charges =  -0.00000
 Mulliken charges with hydrogens summed into heavy atoms:
               1
     1  C    0.253970
     4  C    0.002894
     7  C   -0.032752
    10  C    0.259178
    13  O   -0.483291
 Electronic spatial extent (au):  <R**2>=            379.0231
 Charge=             -0.0000 electrons
 Dipole moment (field-independent basis, Debye):
    X=              0.1022    Y=              1.5574    Z=              0.4631  Tot=              1.6280
 Quadrupole moment (field-independent basis, Debye-Ang):
   XX=            -29.0215   YY=            -34.4707   ZZ=            -30.6050
   XY=             -0.0771   XZ=             -0.0972   YZ=             -0.8972
 Traceless Quadrupole moment (field-independent basis, Debye-Ang):
   XX=              2.3442   YY=             -3.1050   ZZ=              0.7607
   XY=             -0.0771   XZ=             -0.0972   YZ=             -0.8972
 Octapole moment (field-independent basis, Debye-Ang**2):
  XXX=             -0.9486  YYY=             -0.1715  ZZZ=             -0.7415  XYY=              0.4584
  XXY=             -3.5649  XXZ=             -1.5043  XZZ=              0.3061  YZZ=             -0.5535
  YYZ=              0.3685  XYZ=             -0.4439
 Hexadecapole moment (field-independent basis, Debye-Ang**3):
 XXXX=           -222.2577 YYYY=           -218.2324 ZZZZ=            -61.7016 XXXY=              2.2220
 XXXZ=              0.5895 YYYX=              0.4380 YYYZ=             -0.4461 ZZZX=              0.3933
 ZZZY=             -0.2642 XXYY=            -70.5840 XXZZ=            -45.7378 YYZZ=            -43.6683
 XXYZ=              1.4745 YYXZ=             -0.7794 ZZXY=             -0.3928
 N-N= 1.888568998384D+02 E-N=-9.186045559729D+02  KE= 2.302261356762D+02
 Calling FoFJK, ICntrl=      2127 FMM=F ISym2X=0 I1Cent= 0 IOpClX= 0 NMat=1 NMatS=1 NMatT=0.
 ***** Axes restored to original set *****
 -------------------------------------------------------------------
 Center     Atomic                   Forces (Hartrees/Bohr)
 Number     Number              X              Y              Z
 -------------------------------------------------------------------
      1        6           0.013512093   -0.008895804   -0.019351767
      2        1          -0.000833199    0.005699000    0.004716919
      3        1          -0.012781404    0.000832895    0.003388098
      4        6           0.014724232    0.022847954   -0.006348438
      5        1          -0.004889718   -0.008445534   -0.004591783
      6        1          -0.006685781   -0.000471882    0.007176071
      7        6          -0.004940419    0.010501789    0.015962650
      8        1          -0.005670829    0.000313123   -0.002192734
      9        1           0.003730965   -0.002586557    0.002764423
     10        6          -0.014218750   -0.021444117   -0.007790769
     11        1           0.001926451    0.002969759   -0.001908835
     12        1           0.005057514    0.004682219    0.005316829
     13        8           0.011068844   -0.006002844    0.002859336
 -------------------------------------------------------------------
 Cartesian Forces:  Max     0.022847954 RMS     0.009192036

 GradGradGradGradGradGradGradGradGradGradGradGradGradGradGradGradGradGrad
 Berny optimization.
 FormGI is forming the generalized inverse of G from B-inverse, IUseBI=4.
 Internal  Forces:  Max     0.011754171 RMS     0.004094660
 Search for a local minimum.
 Step number   1 out of a maximum of   81
 All quantities printed in internal units (Hartrees-Bohrs-Radians)
 Mixed Optimization -- RFO/linear search
 Second derivative matrix not updated -- first step.
 ITU=  0
     Eigenvalues ---    0.00304   0.00895   0.02714   0.03370   0.04739
     Eigenvalues ---    0.05158   0.05301   0.05549   0.05934   0.05989
     Eigenvalues ---    0.06595   0.06819   0.07437   0.09646   0.10803
     Eigenvalues ---    0.11170   0.11210   0.12297   0.21018   0.21647
     Eigenvalues ---    0.24927   0.25010   0.26896   0.34416   0.34452
     Eigenvalues ---    0.34490   0.34493   0.34514   0.34530   0.34605
     Eigenvalues ---    0.34655   0.38775   0.40441
 RFO step:  Lambda=-9.84692274D-03 EMin= 3.03965512D-03
 Linear search not attempted -- first point.
 Iteration  1 RMS(Cart)=  0.03127591 RMS(Int)=  0.00129059
 Iteration  2 RMS(Cart)=  0.00116427 RMS(Int)=  0.00049755
 Iteration  3 RMS(Cart)=  0.00000087 RMS(Int)=  0.00049755
 Variable       Old X    -DE/DX   Delta X   Delta X   Delta X     New X
                                 (Linear)    (Quad)   (Total)
    R1        2.06507  -0.00029   0.00000  -0.00082  -0.00082   2.06425
    R2        2.06633   0.00500   0.00000   0.01412   0.01412   2.08045
    R3        2.93057  -0.00707   0.00000  -0.02710  -0.02718   2.90339
    R4        2.68141   0.00480   0.00000   0.01107   0.01090   2.69231
    R5        2.06321   0.00176   0.00000   0.00495   0.00495   2.06816
    R6        2.06472  -0.00069   0.00000  -0.00193  -0.00193   2.06279
    R7        2.98210  -0.01175   0.00000  -0.04419  -0.04407   2.93803
    R8        2.06444   0.00237   0.00000   0.00667   0.00667   2.07111
    R9        2.06239   0.00092   0.00000   0.00258   0.00258   2.06496
   R10        2.97989  -0.00806   0.00000  -0.02873  -0.02858   2.95131
   R11        2.06512   0.00315   0.00000   0.00888   0.00888   2.07399
   R12        2.06574   0.00087   0.00000   0.00245   0.00245   2.06819
   R13        2.70847  -0.00585   0.00000  -0.01387  -0.01391   2.69456
    A1        1.99035  -0.00546   0.00000  -0.07162  -0.07144   1.91891
    A2        1.95187   0.00432   0.00000   0.02369   0.02369   1.97556
    A3        1.89404  -0.00408   0.00000  -0.02445  -0.02450   1.86954
    A4        1.92294  -0.00308   0.00000  -0.01663  -0.01810   1.90485
    A5        1.86181   0.00516   0.00000   0.08260   0.08253   1.94434
    A6        1.83353   0.00396   0.00000   0.01675   0.01649   1.85001
    A7        1.89103   0.00508   0.00000   0.05715   0.05637   1.94740
    A8        2.01635  -0.00539   0.00000  -0.07374  -0.07300   1.94335
    A9        1.78931  -0.00283   0.00000  -0.01086  -0.01111   1.77820
   A10        1.97042  -0.00420   0.00000  -0.05384  -0.05438   1.91604
   A11        1.91312   0.00224   0.00000   0.04003   0.03887   1.95199
   A12        1.87330   0.00559   0.00000   0.05100   0.05039   1.92369
   A13        1.96647  -0.00433   0.00000  -0.02437  -0.02530   1.94117
   A14        1.95384   0.00067   0.00000  -0.00485  -0.00547   1.94838
   A15        1.80588   0.00342   0.00000   0.00786   0.00790   1.81379
   A16        1.85599   0.00160   0.00000   0.01673   0.01748   1.87347
   A17        1.87656   0.00507   0.00000   0.05812   0.05865   1.93522
   A18        2.00675  -0.00660   0.00000  -0.05351  -0.05366   1.95308
   A19        1.96169  -0.00359   0.00000  -0.03062  -0.03017   1.93151
   A20        1.89806   0.00761   0.00000   0.06738   0.06700   1.96505
   A21        1.85859   0.00297   0.00000   0.01485   0.01454   1.87313
   A22        1.94223  -0.00351   0.00000  -0.03764  -0.03717   1.90506
   A23        1.92198   0.00021   0.00000  -0.00179  -0.00176   1.92022
   A24        1.87755  -0.00336   0.00000  -0.00848  -0.01012   1.86743
   A25        1.90882  -0.00772   0.00000  -0.03333  -0.03296   1.87587
    D1        1.63430  -0.00440   0.00000  -0.07548  -0.07568   1.55863
    D2       -0.59591   0.00119   0.00000   0.00681   0.00700  -0.58891
    D3       -2.62703  -0.00114   0.00000  -0.01215  -0.01229  -2.63932
    D4       -0.59857   0.00194   0.00000   0.01448   0.01415  -0.58441
    D5       -2.82878   0.00753   0.00000   0.09677   0.09683  -2.73195
    D6        1.42329   0.00520   0.00000   0.07781   0.07754   1.50083
    D7       -2.59771  -0.00471   0.00000  -0.08259  -0.08263  -2.68035
    D8        1.45526   0.00088   0.00000  -0.00030   0.00005   1.45530
    D9       -0.57586  -0.00146   0.00000  -0.01927  -0.01924  -0.59510
   D10        2.74530   0.00440   0.00000   0.02272   0.02279   2.76809
   D11       -1.38616  -0.00145   0.00000  -0.02822  -0.02982  -1.41598
   D12        0.65521  -0.00074   0.00000  -0.00173  -0.00120   0.65401
   D13       -1.71897  -0.00473   0.00000  -0.04180  -0.04181  -1.76078
   D14        2.47323  -0.00422   0.00000  -0.04281  -0.04290   2.43033
   D15        0.30242   0.00121   0.00000   0.01996   0.01987   0.32229
   D16        0.28687   0.00057   0.00000   0.03428   0.03434   0.32122
   D17       -1.80411   0.00108   0.00000   0.03327   0.03325  -1.77086
   D18        2.30827   0.00651   0.00000   0.09604   0.09602   2.40429
   D19        2.43275   0.00031   0.00000   0.02466   0.02515   2.45789
   D20        0.34176   0.00081   0.00000   0.02365   0.02406   0.36582
   D21       -1.82905   0.00624   0.00000   0.08642   0.08683  -1.74222
   D22       -2.04771  -0.00040   0.00000  -0.00622  -0.00637  -2.05409
   D23        2.07697   0.00105   0.00000   0.01422   0.01479   2.09176
   D24        0.05829  -0.00031   0.00000  -0.01673  -0.01689   0.04140
   D25        0.03657  -0.00135   0.00000  -0.00382  -0.00353   0.03304
   D26       -2.12194   0.00010   0.00000   0.01661   0.01764  -2.10430
   D27        2.14257  -0.00126   0.00000  -0.01433  -0.01405   2.12852
   D28        2.09951   0.00018   0.00000   0.02527   0.02471   2.12422
   D29       -0.05899   0.00163   0.00000   0.04571   0.04588  -0.01311
   D30       -2.07766   0.00027   0.00000   0.01477   0.01419  -2.06348
   D31       -0.44663   0.00235   0.00000   0.01819   0.01770  -0.42893
   D32        1.68470  -0.00005   0.00000  -0.01079  -0.01096   1.67374
   D33       -2.47906  -0.00630   0.00000  -0.06306  -0.06293  -2.54199
         Item               Value     Threshold  Converged?
 Maximum Force            0.011754     0.000450     NO 
 RMS     Force            0.004095     0.000300     NO 
 Maximum Displacement     0.100784     0.001800     NO 
 RMS     Displacement     0.031325     0.001200     NO 
 Predicted change in Energy=-5.493095D-03
 GradGradGradGradGradGradGradGradGradGradGradGradGradGradGradGradGradGrad

                          Input orientation:                          
 ---------------------------------------------------------------------
 Center     Atomic      Atomic             Coordinates (Angstroms)
 Number     Number       Type             X           Y           Z
 ---------------------------------------------------------------------
      1          6           0       28.107204   32.971641    3.175472
      2          1           0       27.664111   32.281561    3.897063
      3          1           0       27.716026   33.987738    3.338471
      4          6           0       27.856760   32.563616    1.715560
      5          1           0       26.926020   32.992735    1.331709
      6          1           0       27.836450   31.477908    1.604333
      7          6           0       29.104278   33.153867    0.999658
      8          1           0       28.862650   34.095361    0.493311
      9          1           0       29.496729   32.469019    0.243993
     10          6           0       30.125081   33.390677    2.157668
     11          1           0       30.366324   34.457418    2.249284
     12          1           0       31.051363   32.823256    2.024149
     13          8           0       29.519004   32.922203    3.360329
 ---------------------------------------------------------------------
                    Distance matrix (angstroms):
                    1          2          3          4          5
     1  C    0.000000
     2  H    1.092353   0.000000
     3  H    1.100928   1.796040   0.000000
     4  C    1.536408   2.208082   2.163739   0.000000
     5  H    2.189772   2.762533   2.375127   1.094423   0.000000
     6  H    2.184725   2.435605   3.053028   1.091580   1.788269
     7  C    2.400319   3.351113   2.844755   1.554739   2.209305
     8  H    3.004569   4.038799   3.069408   2.202714   2.381015
     9  H    3.282831   4.091278   3.879846   2.205438   2.840062
    10  C    2.298553   3.211232   2.748513   2.454541   3.327846
    11  H    2.858142   3.840766   2.903619   3.188927   3.850055
    12  H    3.164749   3.908289   3.769341   3.219958   4.186484
    13  O    1.424708   2.034486   2.094414   2.365778   3.292998
                    6          7          8          9         10
     6  H    0.000000
     7  C    2.186746   0.000000
     8  H    3.022998   1.095984   0.000000
     9  H    2.364181   1.092732   1.763293   0.000000
    10  C    3.033595   1.561764   2.204631   2.215047   0.000000
    11  H    3.961528   2.203082   2.339992   2.954846   1.097510
    12  H    3.510252   2.224866   2.958408   2.389838   1.094437
    13  O    2.828515   2.407994   3.166526   3.149194   1.425900
                   11         12         13
    11  H    0.000000
    12  H    1.786183   0.000000
    13  O    2.075874   2.035508   0.000000
 Stoichiometry    C4H8O
 Framework group  C1[X(C4H8O)]
 Deg. of freedom    33
 Full point group                 C1      NOp   1
 Largest Abelian subgroup         C1      NOp   1
 Largest concise Abelian subgroup C1      NOp   1
                         Standard orientation:                         
 ---------------------------------------------------------------------
 Center     Atomic      Atomic             Coordinates (Angstroms)
 Number     Number       Type             X           Y           Z
 ---------------------------------------------------------------------
      1          6           0       -1.011575   -0.676063    0.199117
      2          1           0       -1.788385   -1.229025   -0.333834
      3          1           0       -1.152980   -0.782777    1.285698
      4          6           0       -0.977343    0.817356   -0.160155
      5          1           0       -1.633927    1.403062    0.490697
      6          1           0       -1.250401    0.981206   -1.204252
      7          6           0        0.520940    1.166441    0.064565
      8          1           0        0.670638    1.672383    1.025187
      9          1           0        0.901424    1.829990   -0.715819
     10          6           0        1.236601   -0.221613    0.049041
     11          1           0        1.715427   -0.421392    1.016172
     12          1           0        1.985433   -0.299653   -0.745284
     13          8           0        0.242629   -1.208815   -0.216746
 ---------------------------------------------------------------------
 Rotational constants (GHZ):           7.1034667           6.8380340           3.9313430
 Standard basis: 6-31G(d) (6D, 7F)
 There are    91 symmetry adapted cartesian basis functions of A   symmetry.
 There are    91 symmetry adapted basis functions of A   symmetry.
    91 basis functions,   172 primitive gaussians,    91 cartesian basis functions
    20 alpha electrons       20 beta electrons
       nuclear repulsion energy       189.6120212343 Hartrees.
 NAtoms=   13 NActive=   13 NUniq=   13 SFac= 1.00D+00 NAtFMM=   60 NAOKFM=F Big=F
 Integral buffers will be    131072 words long.
 Raffenetti 2 integral format.
 Two-electron integral symmetry is turned on.
 One-electron integrals computed using PRISM.
 NBasis=    91 RedAO= T EigKep=  3.55D-03  NBF=    91
 NBsUse=    91 1.00D-06 EigRej= -1.00D+00 NBFU=    91
 Initial guess from the checkpoint file:  "THF.chk"
 B after Tr=     0.000000   -0.000000   -0.000000
         Rot=    0.991933    0.008942    0.004069   -0.126379 Ang=  14.56 deg.
 ExpMin= 1.61D-01 ExpMax= 5.48D+03 ExpMxC= 8.25D+02 IAcc=3 IRadAn=         5 AccDes= 0.00D+00
 Harris functional with IExCor=  402 and IRadAn=       5 diagonalized for initial guess.
 HarFok:  IExCor=  402 AccDes= 0.00D+00 IRadAn=         5 IDoV= 1 UseB2=F ITyADJ=14
 ICtDFT=  3500011 ScaDFX=  1.000000  1.000000  1.000000  1.000000
 FoFCou: FMM=F IPFlag=           0 FMFlag=      100000 FMFlg1=           0
         NFxFlg=           0 DoJE=T BraDBF=F KetDBF=T FulRan=T
         wScrn=  0.000000 ICntrl=       500 IOpCl=  0 I1Cent=   200000004 NGrid=           0
         NMat0=    1 NMatS0=      1 NMatT0=    0 NMatD0=    1 NMtDS0=    0 NMtDT0=    0
 Petite list used in FoFCou.
 Requested convergence on RMS density matrix=1.00D-08 within 128 cycles.
 Requested convergence on MAX density matrix=1.00D-06.
 Requested convergence on             energy=1.00D-06.
 No special actions if energy rises.
 Integral accuracy reduced to 1.0D-05 until final iterations.
 Initial convergence to 1.0D-05 achieved.  Increase integral accuracy.
 SCF Done:  E(RB3LYP) =  -232.448682523     A.U. after   11 cycles
            NFock= 11  Conv=0.39D-08     -V/T= 2.0094
 Calling FoFJK, ICntrl=      2127 FMM=F ISym2X=0 I1Cent= 0 IOpClX= 0 NMat=1 NMatS=1 NMatT=0.
 ***** Axes restored to original set *****
 -------------------------------------------------------------------
 Center     Atomic                   Forces (Hartrees/Bohr)
 Number     Number              X              Y              Z
 -------------------------------------------------------------------
      1        6           0.000861636   -0.004089818   -0.002573229
      2        1          -0.001609570    0.001878318    0.002173158
      3        1           0.000185855    0.001189227    0.003351842
      4        6           0.007482253    0.006994339   -0.000702868
      5        1          -0.000919947   -0.003235755   -0.000597715
      6        1          -0.001747220   -0.001635986    0.000825729
      7        6          -0.000189705    0.000261681    0.003270706
      8        1           0.000434046   -0.000486256    0.000654499
      9        1           0.000369003   -0.000271192   -0.000640725
     10        6          -0.003640502   -0.002923212   -0.003675487
     11        1           0.001714548    0.001543056   -0.000313635
     12        1           0.001167669    0.001784988   -0.000041305
     13        8          -0.004108065   -0.001009388   -0.001730970
 -------------------------------------------------------------------
 Cartesian Forces:  Max     0.007482253 RMS     0.002529538

 GradGradGradGradGradGradGradGradGradGradGradGradGradGradGradGradGradGrad
 Berny optimization.
 Using GEDIIS/GDIIS optimizer.
 FormGI is forming the generalized inverse of G from B-inverse, IUseBI=4.
 Internal  Forces:  Max     0.004166583 RMS     0.001239736
 Search for a local minimum.
 Step number   2 out of a maximum of   81
 All quantities printed in internal units (Hartrees-Bohrs-Radians)
 Mixed Optimization -- RFO/linear search
 Update second derivatives using D2CorX and points    1    2
 DE= -5.40D-03 DEPred=-5.49D-03 R= 9.83D-01
 TightC=F SS=  1.41D+00  RLast= 3.34D-01 DXNew= 5.0454D-01 1.0030D+00
 Trust test= 9.83D-01 RLast= 3.34D-01 DXMaxT set to 5.05D-01
 ITU=  1  0
 Use linear search instead of GDIIS.
     Eigenvalues ---    0.00307   0.00883   0.02673   0.03415   0.04672
     Eigenvalues ---    0.04986   0.05197   0.05556   0.05778   0.06174
     Eigenvalues ---    0.06435   0.06898   0.07397   0.09368   0.10962
     Eigenvalues ---    0.11103   0.11504   0.12540   0.20995   0.22916
     Eigenvalues ---    0.24137   0.25118   0.26777   0.34229   0.34451
     Eigenvalues ---    0.34470   0.34496   0.34520   0.34588   0.34646
     Eigenvalues ---    0.34715   0.38922   0.41086
 RFO step:  Lambda=-9.96792787D-04 EMin= 3.07453969D-03
 Quartic linear search produced a step of  0.10208.
 Iteration  1 RMS(Cart)=  0.01968741 RMS(Int)=  0.00037817
 Iteration  2 RMS(Cart)=  0.00036024 RMS(Int)=  0.00012815
 Iteration  3 RMS(Cart)=  0.00000008 RMS(Int)=  0.00012815
 Variable       Old X    -DE/DX   Delta X   Delta X   Delta X     New X
                                 (Linear)    (Quad)   (Total)
    R1        2.06425   0.00090  -0.00008   0.00289   0.00280   2.06705
    R2        2.08045   0.00153   0.00144   0.00463   0.00607   2.08653
    R3        2.90339  -0.00024  -0.00277  -0.00174  -0.00454   2.89885
    R4        2.69231  -0.00273   0.00111  -0.00721  -0.00617   2.68614
    R5        2.06816  -0.00028   0.00051  -0.00096  -0.00046   2.06770
    R6        2.06279   0.00158  -0.00020   0.00505   0.00485   2.06764
    R7        2.93803  -0.00184  -0.00450  -0.00832  -0.01273   2.92530
    R8        2.07111  -0.00082   0.00068  -0.00271  -0.00203   2.06908
    R9        2.06496   0.00074   0.00026   0.00232   0.00258   2.06755
   R10        2.95131  -0.00417  -0.00292  -0.01645  -0.01931   2.93200
   R11        2.07399   0.00185   0.00091   0.00574   0.00665   2.08064
   R12        2.06819   0.00007   0.00025   0.00017   0.00042   2.06861
   R13        2.69456   0.00161  -0.00142   0.00564   0.00416   2.69872
    A1        1.91891  -0.00270  -0.00729  -0.02028  -0.02780   1.89111
    A2        1.97556   0.00210   0.00242   0.01852   0.02100   1.99656
    A3        1.86954   0.00106  -0.00250   0.01130   0.00893   1.87847
    A4        1.90485   0.00315  -0.00185   0.02810   0.02593   1.93078
    A5        1.94434  -0.00077   0.00842  -0.01528  -0.00662   1.93772
    A6        1.85001  -0.00290   0.00168  -0.02331  -0.02163   1.82839
    A7        1.94740   0.00009   0.00575   0.01212   0.01747   1.96488
    A8        1.94335  -0.00129  -0.00745  -0.01588  -0.02320   1.92015
    A9        1.77820   0.00187  -0.00113   0.00888   0.00744   1.78564
   A10        1.91604  -0.00094  -0.00555  -0.02369  -0.02928   1.88676
   A11        1.95199  -0.00009   0.00397   0.01373   0.01727   1.96926
   A12        1.92369   0.00052   0.00514   0.00754   0.01278   1.93647
   A13        1.94117  -0.00005  -0.00258   0.00221  -0.00050   1.94067
   A14        1.94838   0.00030  -0.00056   0.00486   0.00424   1.95261
   A15        1.81379   0.00001   0.00081  -0.00617  -0.00533   1.80845
   A16        1.87347   0.00001   0.00178   0.00082   0.00268   1.87616
   A17        1.93522   0.00015   0.00599  -0.00368   0.00237   1.93758
   A18        1.95308  -0.00042  -0.00548   0.00187  -0.00364   1.94944
   A19        1.93151   0.00089  -0.00308   0.00200  -0.00096   1.93056
   A20        1.96505   0.00044   0.00684   0.00524   0.01202   1.97708
   A21        1.87313  -0.00111   0.00148  -0.00440  -0.00309   1.87004
   A22        1.90506  -0.00139  -0.00379  -0.01693  -0.02066   1.88440
   A23        1.92022   0.00063  -0.00018   0.00541   0.00529   1.92552
   A24        1.86743   0.00057  -0.00103   0.00941   0.00819   1.87562
   A25        1.87587   0.00195  -0.00336   0.00329  -0.00021   1.87566
    D1        1.55863  -0.00133  -0.00773  -0.06083  -0.06854   1.49008
    D2       -0.58891   0.00075   0.00071  -0.02737  -0.02658  -0.61549
    D3       -2.63932  -0.00032  -0.00125  -0.03402  -0.03515  -2.67446
    D4       -0.58441  -0.00161   0.00144  -0.06808  -0.06686  -0.65127
    D5       -2.73195   0.00047   0.00989  -0.03462  -0.02490  -2.75684
    D6        1.50083  -0.00060   0.00792  -0.04126  -0.03346   1.46737
    D7       -2.68035  -0.00073  -0.00844  -0.05171  -0.06018  -2.74053
    D8        1.45530   0.00135   0.00000  -0.01825  -0.01822   1.43708
    D9       -0.59510   0.00028  -0.00196  -0.02489  -0.02679  -0.62189
   D10        2.76809   0.00138   0.00233   0.04105   0.04324   2.81133
   D11       -1.41598  -0.00170  -0.00304   0.01445   0.01110  -1.40488
   D12        0.65401  -0.00007  -0.00012   0.02593   0.02572   0.67972
   D13       -1.76078  -0.00010  -0.00427   0.02303   0.01873  -1.74205
   D14        2.43033  -0.00028  -0.00438   0.01720   0.01278   2.44311
   D15        0.32229   0.00006   0.00203   0.01617   0.01817   0.34046
   D16        0.32122   0.00105   0.00351   0.04878   0.05235   0.37357
   D17       -1.77086   0.00087   0.00339   0.04295   0.04640  -1.72445
   D18        2.40429   0.00121   0.00980   0.04192   0.05179   2.45608
   D19        2.45789   0.00016   0.00257   0.03330   0.03591   2.49380
   D20        0.36582  -0.00002   0.00246   0.02747   0.02995   0.39578
   D21       -1.74222   0.00032   0.00886   0.02644   0.03535  -1.70687
   D22       -2.05409  -0.00034  -0.00065  -0.00319  -0.00383  -2.05792
   D23        2.09176   0.00050   0.00151   0.01355   0.01514   2.10690
   D24        0.04140   0.00026  -0.00172   0.00183   0.00014   0.04154
   D25        0.03304  -0.00032  -0.00036  -0.00600  -0.00633   0.02671
   D26       -2.10430   0.00052   0.00180   0.01073   0.01264  -2.09166
   D27        2.12852   0.00028  -0.00143  -0.00098  -0.00235   2.12617
   D28        2.12422  -0.00048   0.00252  -0.00621  -0.00375   2.12047
   D29       -0.01311   0.00036   0.00468   0.01052   0.01522   0.00210
   D30       -2.06348   0.00012   0.00145  -0.00119   0.00022  -2.06326
   D31       -0.42893  -0.00113   0.00181  -0.02256  -0.02087  -0.44980
   D32        1.67374  -0.00036  -0.00112  -0.01969  -0.02086   1.65287
   D33       -2.54199  -0.00135  -0.00642  -0.03152  -0.03795  -2.57994
         Item               Value     Threshold  Converged?
 Maximum Force            0.004167     0.000450     NO 
 RMS     Force            0.001240     0.000300     NO 
 Maximum Displacement     0.078262     0.001800     NO 
 RMS     Displacement     0.019711     0.001200     NO 
 Predicted change in Energy=-5.703838D-04
 GradGradGradGradGradGradGradGradGradGradGradGradGradGradGradGradGradGrad

                          Input orientation:                          
 ---------------------------------------------------------------------
 Center     Atomic      Atomic             Coordinates (Angstroms)
 Number     Number       Type             X           Y           Z
 ---------------------------------------------------------------------
      1          6           0       28.101582   32.974347    3.171803
      2          1           0       27.637217   32.310660    3.906898
      3          1           0       27.738206   34.001274    3.352104
      4          6           0       27.866110   32.566351    1.711919
      5          1           0       26.921848   32.951321    1.315182
      6          1           0       27.851736   31.475718    1.625505
      7          6           0       29.104425   33.161834    0.998975
      8          1           0       28.860300   34.108748    0.506441
      9          1           0       29.499151   32.485727    0.234696
     10          6           0       30.119871   33.379809    2.151649
     11          1           0       30.365709   34.448070    2.254816
     12          1           0       31.056077   32.829679    2.013237
     13          8           0       29.509768   32.893462    3.347776
 ---------------------------------------------------------------------
                    Distance matrix (angstroms):
                    1          2          3          4          5
     1  C    0.000000
     2  H    1.093838   0.000000
     3  H    1.104142   1.782182   0.000000
     4  C    1.534004   2.221644   2.183018   0.000000
     5  H    2.199851   2.763909   2.432672   1.094181   0.000000
     6  H    2.167799   2.438832   3.061449   1.094146   1.771552
     7  C    2.400423   3.366484   2.847531   1.548003   2.215388
     8  H    2.994440   4.036355   3.060791   2.195582   2.398186
     9  H    3.289156   4.120985   3.887935   2.203523   2.833146
    10  C    2.297521   3.222972   2.738547   2.436086   3.333261
    11  H    2.852893   3.839605   2.882263   3.175468   3.870833
    12  H    3.176830   3.942580   3.764767   3.214969   4.194511
    13  O    1.421442   2.039295   2.089425   2.341931   3.291217
                    6          7          8          9         10
     6  H    0.000000
     7  C    2.191976   0.000000
     8  H    3.033538   1.094912   0.000000
     9  H    2.380849   1.094098   1.765268   0.000000
    10  C    3.007794   1.551548   2.196493   2.204401   0.000000
    11  H    3.943472   2.195991   2.331997   2.946625   1.101028
    12  H    3.500192   2.224409   2.954299   2.388625   1.094661
    13  O    2.779440   2.398581   3.157833   3.139686   1.428103
                   11         12         13
    11  H    0.000000
    12  H    1.775995   0.000000
    13  O    2.084227   2.043559   0.000000
 Stoichiometry    C4H8O
 Framework group  C1[X(C4H8O)]
 Deg. of freedom    33
 Full point group                 C1      NOp   1
 Largest Abelian subgroup         C1      NOp   1
 Largest concise Abelian subgroup C1      NOp   1
                         Standard orientation:                         
 ---------------------------------------------------------------------
 Center     Atomic      Atomic             Coordinates (Angstroms)
 Number     Number       Type             X           Y           Z
 ---------------------------------------------------------------------
      1          6           0       -1.109651   -0.501411    0.208750
      2          1           0       -1.982380   -0.931070   -0.291469
      3          1           0       -1.248449   -0.604062    1.299312
      4          6           0       -0.820423    0.958202   -0.164141
      5          1           0       -1.392326    1.667762    0.441403
      6          1           0       -1.067587    1.132137   -1.215717
      7          6           0        0.706183    1.062427    0.070222
      8          1           0        0.927486    1.532162    1.034176
      9          1           0        1.198145    1.656423   -0.705788
     10          6           0        1.180671   -0.414636    0.049059
     11          1           0        1.618758   -0.694975    1.019498
     12          1           0        1.923477   -0.619298   -0.728523
     13          8           0        0.035275   -1.220822   -0.229529
 ---------------------------------------------------------------------
 Rotational constants (GHZ):           7.0905465           6.9131330           3.9604430
 Standard basis: 6-31G(d) (6D, 7F)
 There are    91 symmetry adapted cartesian basis functions of A   symmetry.
 There are    91 symmetry adapted basis functions of A   symmetry.
    91 basis functions,   172 primitive gaussians,    91 cartesian basis functions
    20 alpha electrons       20 beta electrons
       nuclear repulsion energy       189.9861963891 Hartrees.
 NAtoms=   13 NActive=   13 NUniq=   13 SFac= 1.00D+00 NAtFMM=   60 NAOKFM=F Big=F
 Integral buffers will be    131072 words long.
 Raffenetti 2 integral format.
 Two-electron integral symmetry is turned on.
 One-electron integrals computed using PRISM.
 NBasis=    91 RedAO= T EigKep=  3.51D-03  NBF=    91
 NBsUse=    91 1.00D-06 EigRej= -1.00D+00 NBFU=    91
 Initial guess from the checkpoint file:  "THF.chk"
 B after Tr=    -0.000000   -0.000000    0.000000
         Rot=    0.996628    0.000305    0.000311    0.082048 Ang=   9.41 deg.
 ExpMin= 1.61D-01 ExpMax= 5.48D+03 ExpMxC= 8.25D+02 IAcc=3 IRadAn=         5 AccDes= 0.00D+00
 Harris functional with IExCor=  402 and IRadAn=       5 diagonalized for initial guess.
 HarFok:  IExCor=  402 AccDes= 0.00D+00 IRadAn=         5 IDoV= 1 UseB2=F ITyADJ=14
 ICtDFT=  3500011 ScaDFX=  1.000000  1.000000  1.000000  1.000000
 FoFCou: FMM=F IPFlag=           0 FMFlag=      100000 FMFlg1=           0
         NFxFlg=           0 DoJE=T BraDBF=F KetDBF=T FulRan=T
         wScrn=  0.000000 ICntrl=       500 IOpCl=  0 I1Cent=   200000004 NGrid=           0
         NMat0=    1 NMatS0=      1 NMatT0=    0 NMatD0=    1 NMtDS0=    0 NMtDT0=    0
 Petite list used in FoFCou.
 Requested convergence on RMS density matrix=1.00D-08 within 128 cycles.
 Requested convergence on MAX density matrix=1.00D-06.
 Requested convergence on             energy=1.00D-06.
 No special actions if energy rises.
 Integral accuracy reduced to 1.0D-05 until final iterations.
 Initial convergence to 1.0D-05 achieved.  Increase integral accuracy.
 SCF Done:  E(RB3LYP) =  -232.449251371     A.U. after   10 cycles
            NFock= 10  Conv=0.32D-08     -V/T= 2.0094
 Calling FoFJK, ICntrl=      2127 FMM=F ISym2X=0 I1Cent= 0 IOpClX= 0 NMat=1 NMatS=1 NMatT=0.
 ***** Axes restored to original set *****
 -------------------------------------------------------------------
 Center     Atomic                   Forces (Hartrees/Bohr)
 Number     Number              X              Y              Z
 -------------------------------------------------------------------
      1        6           0.000428572    0.000303753   -0.000971853
      2        1          -0.000223048   -0.000081131   -0.000148943
      3        1           0.000253832    0.000222266    0.000198606
      4        6          -0.000249894    0.001300012    0.000304273
      5        1          -0.000353000   -0.000373439   -0.000441341
      6        1           0.000446995   -0.000563359   -0.000025855
      7        6          -0.000574990   -0.001653265   -0.000075390
      8        1           0.000232141   -0.000007727    0.000135074
      9        1          -0.000663303    0.000230877   -0.000467565
     10        6          -0.000252343    0.001031722    0.000304660
     11        1           0.000111706    0.000068549    0.000580294
     12        1          -0.000072347   -0.000090051    0.000367814
     13        8           0.000915678   -0.000388207    0.000240227
 -------------------------------------------------------------------
 Cartesian Forces:  Max     0.001653265 RMS     0.000528618

 GradGradGradGradGradGradGradGradGradGradGradGradGradGradGradGradGradGrad
 Berny optimization.
 Using GEDIIS/GDIIS optimizer.
 FormGI is forming the generalized inverse of G from B-inverse, IUseBI=4.
 Internal  Forces:  Max     0.001152391 RMS     0.000309702
 Search for a local minimum.
 Step number   3 out of a maximum of   81
 All quantities printed in internal units (Hartrees-Bohrs-Radians)
 Mixed Optimization -- En-DIIS/RFO-DIIS
 Update second derivatives using D2CorX and points    1    2    3
 DE= -5.69D-04 DEPred=-5.70D-04 R= 9.97D-01
 TightC=F SS=  1.41D+00  RLast= 2.03D-01 DXNew= 8.4853D-01 6.0906D-01
 Trust test= 9.97D-01 RLast= 2.03D-01 DXMaxT set to 6.09D-01
 ITU=  1  1  0
 Use linear search instead of GDIIS.
     Eigenvalues ---    0.00306   0.00823   0.02601   0.03418   0.04411
     Eigenvalues ---    0.05094   0.05241   0.05582   0.05888   0.06078
     Eigenvalues ---    0.06584   0.06869   0.07466   0.09824   0.10733
     Eigenvalues ---    0.11083   0.11553   0.12545   0.20859   0.23451
     Eigenvalues ---    0.24020   0.25888   0.26796   0.34082   0.34452
     Eigenvalues ---    0.34466   0.34498   0.34529   0.34588   0.34645
     Eigenvalues ---    0.34713   0.38951   0.41309
 RFO step:  Lambda=-9.29620463D-05 EMin= 3.05858123D-03
 Quartic linear search produced a step of  0.04918.
 Iteration  1 RMS(Cart)=  0.01012442 RMS(Int)=  0.00006564
 Iteration  2 RMS(Cart)=  0.00006657 RMS(Int)=  0.00001663
 Iteration  3 RMS(Cart)=  0.00000000 RMS(Int)=  0.00001663
 Variable       Old X    -DE/DX   Delta X   Delta X   Delta X     New X
                                 (Linear)    (Quad)   (Total)
    R1        2.06705   0.00004   0.00014   0.00017   0.00031   2.06736
    R2        2.08653   0.00016   0.00030   0.00070   0.00100   2.08752
    R3        2.89885  -0.00013  -0.00022  -0.00155  -0.00178   2.89707
    R4        2.68614   0.00019  -0.00030   0.00040   0.00009   2.68622
    R5        2.06770   0.00033  -0.00002   0.00104   0.00102   2.06872
    R6        2.06764   0.00056   0.00024   0.00175   0.00199   2.06962
    R7        2.92530  -0.00075  -0.00063  -0.00395  -0.00456   2.92074
    R8        2.06908  -0.00012  -0.00010  -0.00033  -0.00043   2.06865
    R9        2.06755  -0.00006   0.00013  -0.00010   0.00003   2.06757
   R10        2.93200   0.00115  -0.00095   0.00475   0.00381   2.93581
   R11        2.08064   0.00015   0.00033   0.00063   0.00096   2.08160
   R12        2.06861  -0.00006   0.00002  -0.00016  -0.00014   2.06847
   R13        2.69872  -0.00062   0.00020  -0.00131  -0.00112   2.69761
    A1        1.89111   0.00009  -0.00137  -0.00067  -0.00205   1.88906
    A2        1.99656  -0.00049   0.00103  -0.00294  -0.00188   1.99468
    A3        1.87847  -0.00017   0.00044   0.00092   0.00138   1.87985
    A4        1.93078   0.00023   0.00128   0.00409   0.00536   1.93614
    A5        1.93772  -0.00032  -0.00033  -0.00120  -0.00149   1.93623
    A6        1.82839   0.00065  -0.00106  -0.00031  -0.00143   1.82696
    A7        1.96488   0.00033   0.00086   0.00787   0.00873   1.97361
    A8        1.92015   0.00006  -0.00114  -0.00331  -0.00446   1.91569
    A9        1.78564  -0.00029   0.00037  -0.00375  -0.00344   1.78220
   A10        1.88676  -0.00008  -0.00144  -0.00098  -0.00240   1.88435
   A11        1.96926   0.00001   0.00085   0.00411   0.00494   1.97420
   A12        1.93647  -0.00004   0.00063  -0.00423  -0.00360   1.93286
   A13        1.94067  -0.00004  -0.00002  -0.00070  -0.00073   1.93994
   A14        1.95261  -0.00010   0.00021  -0.00073  -0.00052   1.95209
   A15        1.80845   0.00003  -0.00026  -0.00097  -0.00125   1.80721
   A16        1.87616  -0.00014   0.00013  -0.00230  -0.00217   1.87399
   A17        1.93758  -0.00023   0.00012  -0.00320  -0.00309   1.93450
   A18        1.94944   0.00049  -0.00018   0.00800   0.00783   1.95727
   A19        1.93056   0.00052  -0.00005   0.00536   0.00530   1.93586
   A20        1.97708   0.00013   0.00059   0.00232   0.00292   1.98000
   A21        1.87004   0.00010  -0.00015  -0.00081  -0.00099   1.86905
   A22        1.88440  -0.00011  -0.00102  -0.00003  -0.00107   1.88333
   A23        1.92552  -0.00024   0.00026  -0.00365  -0.00338   1.92214
   A24        1.87562  -0.00043   0.00040  -0.00366  -0.00325   1.87238
   A25        1.87566  -0.00061  -0.00001  -0.00650  -0.00657   1.86909
    D1        1.49008  -0.00011  -0.00337  -0.02121  -0.02458   1.46550
    D2       -0.61549  -0.00027  -0.00131  -0.02293  -0.02422  -0.63971
    D3       -2.67446  -0.00010  -0.00173  -0.01461  -0.01634  -2.69080
    D4       -0.65127  -0.00004  -0.00329  -0.02135  -0.02466  -0.67593
    D5       -2.75684  -0.00020  -0.00122  -0.02306  -0.02430  -2.78114
    D6        1.46737  -0.00003  -0.00165  -0.01475  -0.01641   1.45095
    D7       -2.74053  -0.00015  -0.00296  -0.02186  -0.02483  -2.76536
    D8        1.43708  -0.00031  -0.00090  -0.02357  -0.02447   1.41261
    D9       -0.62189  -0.00015  -0.00132  -0.01526  -0.01659  -0.63848
   D10        2.81133  -0.00002   0.00213   0.01243   0.01454   2.82587
   D11       -1.40488  -0.00021   0.00055   0.01150   0.01204  -1.39284
   D12        0.67972   0.00028   0.00126   0.01556   0.01681   0.69653
   D13       -1.74205   0.00000   0.00092   0.01236   0.01328  -1.72877
   D14        2.44311   0.00027   0.00063   0.01628   0.01690   2.46001
   D15        0.34046  -0.00028   0.00089   0.00768   0.00856   0.34902
   D16        0.37357   0.00022   0.00257   0.02156   0.02413   0.39771
   D17       -1.72445   0.00049   0.00228   0.02547   0.02775  -1.69670
   D18        2.45608  -0.00006   0.00255   0.01687   0.01941   2.47550
   D19        2.49380   0.00010   0.00177   0.02011   0.02187   2.51567
   D20        0.39578   0.00038   0.00147   0.02402   0.02549   0.42126
   D21       -1.70687  -0.00017   0.00174   0.01543   0.01715  -1.68972
   D22       -2.05792   0.00031  -0.00019   0.00270   0.00253  -2.05539
   D23        2.10690  -0.00001   0.00074  -0.00283  -0.00208   2.10482
   D24        0.04154   0.00038   0.00001   0.00086   0.00087   0.04242
   D25        0.02671   0.00016  -0.00031  -0.00026  -0.00057   0.02614
   D26       -2.09166  -0.00016   0.00062  -0.00579  -0.00517  -2.09683
   D27        2.12617   0.00023  -0.00012  -0.00210  -0.00222   2.12395
   D28        2.12047   0.00016  -0.00018   0.00002  -0.00016   2.12031
   D29        0.00210  -0.00016   0.00075  -0.00551  -0.00477  -0.00267
   D30       -2.06326   0.00023   0.00001  -0.00182  -0.00181  -2.06507
   D31       -0.44980  -0.00020  -0.00103  -0.00912  -0.01012  -0.45992
   D32        1.65287   0.00035  -0.00103  -0.00522  -0.00624   1.64663
   D33       -2.57994  -0.00016  -0.00187  -0.00937  -0.01122  -2.59116
         Item               Value     Threshold  Converged?
 Maximum Force            0.001152     0.000450     NO 
 RMS     Force            0.000310     0.000300     NO 
 Maximum Displacement     0.035570     0.001800     NO 
 RMS     Displacement     0.010139     0.001200     NO 
 Predicted change in Energy=-4.765385D-05
 GradGradGradGradGradGradGradGradGradGradGradGradGradGradGradGradGradGrad

                          Input orientation:                          
 ---------------------------------------------------------------------
 Center     Atomic      Atomic             Coordinates (Angstroms)
 Number     Number       Type             X           Y           Z
 ---------------------------------------------------------------------
      1          6           0       28.103406   32.979071    3.167881
      2          1           0       27.629207   32.324178    3.904827
      3          1           0       27.752606   34.011259    3.346264
      4          6           0       27.866932   32.564293    1.711063
      5          1           0       26.917752   32.932498    1.308706
      6          1           0       27.866057   31.471913    1.632562
      7          6           0       29.100951   33.163355    0.998904
      8          1           0       28.855099   34.114300    0.515590
      9          1           0       29.489072   32.494342    0.225041
     10          6           0       30.118996   33.376845    2.152841
     11          1           0       30.365764   34.444286    2.267097
     12          1           0       31.055741   32.827810    2.014325
     13          8           0       29.510416   32.882849    3.345900
 ---------------------------------------------------------------------
                    Distance matrix (angstroms):
                    1          2          3          4          5
     1  C    0.000000
     2  H    1.094002   0.000000
     3  H    1.104669   1.781422   0.000000
     4  C    1.533062   2.219633   2.186473   0.000000
     5  H    2.205556   2.759722   2.452009   1.094719   0.000000
     6  H    2.164501   2.438369   3.065604   1.095198   1.771292
     7  C    2.394476   3.363724   2.836737   1.545590   2.217123
     8  H    2.981347   4.024211   3.039543   2.192749   2.403955
     9  H    3.288668   4.126606   3.880514   2.201020   2.824535
    10  C    2.291535   3.221275   2.725169   2.434584   3.340355
    11  H    2.841924   3.829591   2.860194   3.176115   3.884946
    12  H    3.173303   3.945730   3.753041   3.214018   4.199026
    13  O    1.421487   2.040456   2.088829   2.339916   3.297656
                    6          7          8          9         10
     6  H    0.000000
     7  C    2.188027   0.000000
     8  H    3.034474   1.094683   0.000000
     9  H    2.379212   1.094112   1.763691   0.000000
    10  C    2.995862   1.553565   2.195874   2.211793   0.000000
    11  H    3.935247   2.202011   2.336402   2.956496   1.101536
    12  H    3.486873   2.228200   2.957040   2.401498   1.094585
    13  O    2.762279   2.398903   3.155402   3.145021   1.427512
                   11         12         13
    11  H    0.000000
    12  H    1.775657   0.000000
    13  O    2.081711   2.040625   0.000000
 Stoichiometry    C4H8O
 Framework group  C1[X(C4H8O)]
 Deg. of freedom    33
 Full point group                 C1      NOp   1
 Largest Abelian subgroup         C1      NOp   1
 Largest concise Abelian subgroup C1      NOp   1
                         Standard orientation:                         
 ---------------------------------------------------------------------
 Center     Atomic      Atomic             Coordinates (Angstroms)
 Number     Number       Type             X           Y           Z
 ---------------------------------------------------------------------
      1          6           0       -1.087592   -0.536645    0.214893
      2          1           0       -1.952220   -0.995427   -0.273754
      3          1           0       -1.210178   -0.644945    1.307385
      4          6           0       -0.851643    0.929185   -0.167142
      5          1           0       -1.454098    1.628407    0.421540
      6          1           0       -1.095378    1.080200   -1.224141
      7          6           0        0.667178    1.086308    0.072325
      8          1           0        0.867848    1.557130    1.039997
      9          1           0        1.138613    1.705864   -0.696427
     10          6           0        1.192292   -0.375642    0.049546
     11          1           0        1.635546   -0.649456    1.020079
     12          1           0        1.942846   -0.556769   -0.726327
     13          8           0        0.075701   -1.218030   -0.235760
 ---------------------------------------------------------------------
 Rotational constants (GHZ):           7.1125025           6.9038880           3.9706828
 Standard basis: 6-31G(d) (6D, 7F)
 There are    91 symmetry adapted cartesian basis functions of A   symmetry.
 There are    91 symmetry adapted basis functions of A   symmetry.
    91 basis functions,   172 primitive gaussians,    91 cartesian basis functions
    20 alpha electrons       20 beta electrons
       nuclear repulsion energy       190.0780184286 Hartrees.
 NAtoms=   13 NActive=   13 NUniq=   13 SFac= 1.00D+00 NAtFMM=   60 NAOKFM=F Big=F
 Integral buffers will be    131072 words long.
 Raffenetti 2 integral format.
 Two-electron integral symmetry is turned on.
 One-electron integrals computed using PRISM.
 NBasis=    91 RedAO= T EigKep=  3.51D-03  NBF=    91
 NBsUse=    91 1.00D-06 EigRej= -1.00D+00 NBFU=    91
 Initial guess from the checkpoint file:  "THF.chk"
 B after Tr=    -0.000000    0.000000   -0.000000
         Rot=    0.999856    0.000089   -0.000044   -0.016942 Ang=   1.94 deg.
 ExpMin= 1.61D-01 ExpMax= 5.48D+03 ExpMxC= 8.25D+02 IAcc=3 IRadAn=         5 AccDes= 0.00D+00
 Harris functional with IExCor=  402 and IRadAn=       5 diagonalized for initial guess.
 HarFok:  IExCor=  402 AccDes= 0.00D+00 IRadAn=         5 IDoV= 1 UseB2=F ITyADJ=14
 ICtDFT=  3500011 ScaDFX=  1.000000  1.000000  1.000000  1.000000
 FoFCou: FMM=F IPFlag=           0 FMFlag=      100000 FMFlg1=           0
         NFxFlg=           0 DoJE=T BraDBF=F KetDBF=T FulRan=T
         wScrn=  0.000000 ICntrl=       500 IOpCl=  0 I1Cent=   200000004 NGrid=           0
         NMat0=    1 NMatS0=      1 NMatT0=    0 NMatD0=    1 NMtDS0=    0 NMtDT0=    0
 Petite list used in FoFCou.
 Requested convergence on RMS density matrix=1.00D-08 within 128 cycles.
 Requested convergence on MAX density matrix=1.00D-06.
 Requested convergence on             energy=1.00D-06.
 No special actions if energy rises.
 Integral accuracy reduced to 1.0D-05 until final iterations.
 Initial convergence to 1.0D-05 achieved.  Increase integral accuracy.
 SCF Done:  E(RB3LYP) =  -232.449301492     A.U. after    9 cycles
            NFock=  9  Conv=0.47D-08     -V/T= 2.0094
 Calling FoFJK, ICntrl=      2127 FMM=F ISym2X=0 I1Cent= 0 IOpClX= 0 NMat=1 NMatS=1 NMatT=0.
 ***** Axes restored to original set *****
 -------------------------------------------------------------------
 Center     Atomic                   Forces (Hartrees/Bohr)
 Number     Number              X              Y              Z
 -------------------------------------------------------------------
      1        6          -0.000676131   -0.000071388    0.000548511
      2        1          -0.000008823   -0.000078071   -0.000071756
      3        1           0.000166681   -0.000025479   -0.000336302
      4        6          -0.000412973    0.000149475    0.000419352
      5        1           0.000103550    0.000095545    0.000007464
      6        1           0.000289053   -0.000034723    0.000125543
      7        6           0.000152039   -0.000464687   -0.000408177
      8        1           0.000125817    0.000236883    0.000001874
      9        1           0.000022165    0.000200813   -0.000059334
     10        6           0.000638714    0.000463038    0.000039836
     11        1          -0.000253127   -0.000118144   -0.000187154
     12        1          -0.000032571   -0.000065584   -0.000140821
     13        8          -0.000114394   -0.000287678    0.000060963
 -------------------------------------------------------------------
 Cartesian Forces:  Max     0.000676131 RMS     0.000267411

 GradGradGradGradGradGradGradGradGradGradGradGradGradGradGradGradGradGrad
 Berny optimization.
 Using GEDIIS/GDIIS optimizer.
 FormGI is forming the generalized inverse of G from B-inverse, IUseBI=4.
 Internal  Forces:  Max     0.000517763 RMS     0.000142480
 Search for a local minimum.
 Step number   4 out of a maximum of   81
 All quantities printed in internal units (Hartrees-Bohrs-Radians)
 Mixed Optimization -- En-DIIS/RFO-DIIS
 Swapping is turned off.
 Update second derivatives using D2CorX and points    1    2    3    4
 DE= -5.01D-05 DEPred=-4.77D-05 R= 1.05D+00
 TightC=F SS=  1.41D+00  RLast= 9.75D-02 DXNew= 1.0243D+00 2.9243D-01
 Trust test= 1.05D+00 RLast= 9.75D-02 DXMaxT set to 6.09D-01
 ITU=  1  1  1  0
     Eigenvalues ---    0.00271   0.00717   0.02519   0.03426   0.04450
     Eigenvalues ---    0.05090   0.05228   0.05623   0.05856   0.06183
     Eigenvalues ---    0.06542   0.07013   0.07438   0.09715   0.10987
     Eigenvalues ---    0.11537   0.11771   0.12953   0.20855   0.23539
     Eigenvalues ---    0.24375   0.26265   0.27660   0.34252   0.34444
     Eigenvalues ---    0.34454   0.34482   0.34502   0.34642   0.34707
     Eigenvalues ---    0.34821   0.40339   0.41696
 En-DIIS/RFO-DIIS/Sim-DIIS IScMMF=       -3 using points:     4    3
 RFO step:  Lambda=-1.30787557D-05.
 DidBck=F Rises=F RFO-DIIS coefs:    1.38721   -0.38721
 Iteration  1 RMS(Cart)=  0.00414978 RMS(Int)=  0.00001283
 Iteration  2 RMS(Cart)=  0.00001114 RMS(Int)=  0.00000696
 Iteration  3 RMS(Cart)=  0.00000000 RMS(Int)=  0.00000696
 Variable       Old X    -DE/DX   Delta X   Delta X   Delta X     New X
                                 (Linear)    (Quad)   (Total)
    R1        2.06736   0.00000   0.00012  -0.00009   0.00003   2.06739
    R2        2.08752  -0.00013   0.00039  -0.00064  -0.00025   2.08727
    R3        2.89707  -0.00020  -0.00069  -0.00048  -0.00117   2.89590
    R4        2.68622   0.00023   0.00003   0.00066   0.00069   2.68691
    R5        2.06872  -0.00006   0.00039  -0.00043  -0.00004   2.06868
    R6        2.06962   0.00003   0.00077  -0.00047   0.00030   2.06992
    R7        2.92074   0.00042  -0.00177   0.00269   0.00093   2.92167
    R8        2.06865   0.00018  -0.00017   0.00067   0.00050   2.06915
    R9        2.06757  -0.00007   0.00001  -0.00023  -0.00022   2.06736
   R10        2.93581   0.00001   0.00148  -0.00096   0.00052   2.93633
   R11        2.08160  -0.00019   0.00037  -0.00082  -0.00045   2.08115
   R12        2.06847   0.00002  -0.00006   0.00011   0.00006   2.06852
   R13        2.69761   0.00052  -0.00043   0.00163   0.00119   2.69880
    A1        1.88906   0.00017  -0.00079   0.00283   0.00203   1.89109
    A2        1.99468   0.00003  -0.00073   0.00087   0.00015   1.99483
    A3        1.87985   0.00015   0.00053   0.00088   0.00142   1.88127
    A4        1.93614  -0.00019   0.00208  -0.00327  -0.00119   1.93495
    A5        1.93623   0.00008  -0.00058   0.00046  -0.00011   1.93612
    A6        1.82696  -0.00023  -0.00055  -0.00180  -0.00238   1.82458
    A7        1.97361  -0.00012   0.00338  -0.00169   0.00169   1.97530
    A8        1.91569  -0.00012  -0.00173  -0.00056  -0.00230   1.91339
    A9        1.78220   0.00033  -0.00133   0.00142   0.00005   1.78225
   A10        1.88435   0.00018  -0.00093   0.00254   0.00161   1.88597
   A11        1.97420  -0.00012   0.00191  -0.00144   0.00047   1.97467
   A12        1.93286  -0.00016  -0.00140  -0.00043  -0.00183   1.93103
   A13        1.93994   0.00009  -0.00028   0.00088   0.00059   1.94053
   A14        1.95209   0.00015  -0.00020   0.00219   0.00199   1.95408
   A15        1.80721  -0.00014  -0.00048  -0.00069  -0.00119   1.80602
   A16        1.87399  -0.00006  -0.00084   0.00017  -0.00067   1.87332
   A17        1.93450  -0.00006  -0.00120  -0.00117  -0.00236   1.93213
   A18        1.95727   0.00002   0.00303  -0.00140   0.00164   1.95892
   A19        1.93586  -0.00019   0.00205  -0.00374  -0.00169   1.93417
   A20        1.98000  -0.00011   0.00113  -0.00114  -0.00001   1.98000
   A21        1.86905  -0.00010  -0.00038  -0.00041  -0.00081   1.86825
   A22        1.88333   0.00015  -0.00041   0.00170   0.00128   1.88461
   A23        1.92214   0.00015  -0.00131   0.00144   0.00013   1.92227
   A24        1.87238   0.00011  -0.00126   0.00242   0.00117   1.87355
   A25        1.86909   0.00018  -0.00254   0.00209  -0.00047   1.86862
    D1        1.46550   0.00003  -0.00952   0.00162  -0.00790   1.45760
    D2       -0.63971  -0.00003  -0.00938  -0.00009  -0.00946  -0.64918
    D3       -2.69080   0.00003  -0.00633  -0.00009  -0.00642  -2.69722
    D4       -0.67593  -0.00007  -0.00955  -0.00022  -0.00977  -0.68570
    D5       -2.78114  -0.00013  -0.00941  -0.00193  -0.01134  -2.79248
    D6        1.45095  -0.00007  -0.00635  -0.00193  -0.00829   1.44267
    D7       -2.76536   0.00008  -0.00962   0.00199  -0.00763  -2.77299
    D8        1.41261   0.00001  -0.00948   0.00028  -0.00919   1.40342
    D9       -0.63848   0.00007  -0.00642   0.00029  -0.00614  -0.64462
   D10        2.82587  -0.00008   0.00563  -0.00080   0.00482   2.83069
   D11       -1.39284   0.00025   0.00466   0.00342   0.00808  -1.38476
   D12        0.69653  -0.00007   0.00651  -0.00129   0.00521   0.70174
   D13       -1.72877   0.00010   0.00514   0.00286   0.00801  -1.72076
   D14        2.46001   0.00002   0.00654   0.00056   0.00710   2.46711
   D15        0.34902  -0.00000   0.00331   0.00152   0.00483   0.35385
   D16        0.39771   0.00010   0.00935   0.00098   0.01033   0.40803
   D17       -1.69670   0.00002   0.01075  -0.00132   0.00943  -1.68728
   D18        2.47550  -0.00001   0.00752  -0.00037   0.00715   2.48264
   D19        2.51567   0.00013   0.00847   0.00294   0.01141   2.52709
   D20        0.42126   0.00005   0.00987   0.00064   0.01051   0.43178
   D21       -1.68972   0.00002   0.00664   0.00160   0.00823  -1.68149
   D22       -2.05539   0.00004   0.00098  -0.00131  -0.00033  -2.05573
   D23        2.10482   0.00006  -0.00081   0.00007  -0.00074   2.10408
   D24        0.04242   0.00005   0.00034  -0.00199  -0.00165   0.04077
   D25        0.02614   0.00004  -0.00022  -0.00125  -0.00147   0.02468
   D26       -2.09683   0.00006  -0.00200   0.00013  -0.00187  -2.09870
   D27        2.12395   0.00005  -0.00086  -0.00192  -0.00278   2.12117
   D28        2.12031  -0.00007  -0.00006  -0.00279  -0.00285   2.11746
   D29       -0.00267  -0.00004  -0.00185  -0.00140  -0.00325  -0.00592
   D30       -2.06507  -0.00006  -0.00070  -0.00346  -0.00416  -2.06923
   D31       -0.45992  -0.00003  -0.00392   0.00162  -0.00229  -0.46221
   D32        1.64663  -0.00023  -0.00242  -0.00233  -0.00475   1.64188
   D33       -2.59116   0.00009  -0.00435   0.00186  -0.00248  -2.59364
         Item               Value     Threshold  Converged?
 Maximum Force            0.000518     0.000450     NO 
 RMS     Force            0.000142     0.000300     YES
 Maximum Displacement     0.012733     0.001800     NO 
 RMS     Displacement     0.004151     0.001200     NO 
 Predicted change in Energy=-6.546387D-06
 GradGradGradGradGradGradGradGradGradGradGradGradGradGradGradGradGradGrad

                          Input orientation:                          
 ---------------------------------------------------------------------
 Center     Atomic      Atomic             Coordinates (Angstroms)
 Number     Number       Type             X           Y           Z
 ---------------------------------------------------------------------
      1          6           0       28.102428   32.980242    3.167715
      2          1           0       27.624607   32.328872    3.905468
      3          1           0       27.756340   34.014710    3.341209
      4          6           0       27.867319   32.562962    1.712041
      5          1           0       26.916963   32.926076    1.307891
      6          1           0       27.872795   31.470192    1.637037
      7          6           0       29.100246   33.164367    0.998898
      8          1           0       28.854549   34.118245    0.520713
      9          1           0       29.487351   32.499878    0.220801
     10          6           0       30.119238   33.374796    2.152934
     11          1           0       30.364955   34.442104    2.268396
     12          1           0       31.055719   32.825724    2.012559
     13          8           0       29.509490   32.878833    3.345337
 ---------------------------------------------------------------------
                    Distance matrix (angstroms):
[...]
   D26       -2.70145  -0.00000   0.00009  -0.00000   0.00008  -2.70137
   D27        1.50417  -0.00000   0.00010   0.00000   0.00010   1.50426
   D28        1.53370  -0.00000   0.00008  -0.00003   0.00004   1.53374
   D29       -0.58850  -0.00000   0.00008  -0.00003   0.00005  -0.58846
   D30       -2.66607  -0.00000   0.00009  -0.00003   0.00006  -2.66601
   D31        0.21094  -0.00000  -0.00016  -0.00002  -0.00017   0.21077
   D32        2.34465  -0.00000  -0.00016  -0.00002  -0.00018   2.34448
   D33       -1.88474   0.00000  -0.00016  -0.00001  -0.00017  -1.88491
         Item               Value     Threshold  Converged?
 Maximum Force            0.000012     0.000450     YES
 RMS     Force            0.000002     0.000300     YES
 Maximum Displacement     0.000237     0.001800     YES
 RMS     Displacement     0.000049     0.001200     YES
 Predicted change in Energy=-9.435204D-10
 Optimization completed.
    -- Stationary point found.
                           ----------------------------
                           !   Optimized Parameters   !
                           ! (Angstroms and Degrees)  !
 --------------------------                            --------------------------
 ! Name  Definition              Value          Derivative Info.                !
 --------------------------------------------------------------------------------
 ! R1    R(1,2)                  1.0964         -DE/DX =    0.0                 !
 ! R2    R(1,3)                  1.1012         -DE/DX =    0.0                 !
 ! R3    R(1,4)                  1.5338         -DE/DX =    0.0                 !
 ! R4    R(1,13)                 1.4315         -DE/DX =    0.0                 !
 ! R5    R(4,5)                  1.0945         -DE/DX =    0.0                 !
 ! R6    R(4,6)                  1.0967         -DE/DX =    0.0                 !
 ! R7    R(4,7)                  1.5362         -DE/DX =    0.0                 !
 ! R8    R(7,8)                  1.0967         -DE/DX =    0.0                 !
 ! R9    R(7,9)                  1.0945         -DE/DX =    0.0                 !
 ! R10   R(7,10)                 1.5338         -DE/DX =    0.0                 !
 ! R11   R(10,11)                1.0964         -DE/DX =    0.0                 !
 ! R12   R(10,12)                1.1012         -DE/DX =    0.0                 !
 ! R13   R(10,13)                1.4315         -DE/DX =    0.0                 !
 ! A1    A(2,1,3)              107.9385         -DE/DX =    0.0                 !
 ! A2    A(2,1,4)              113.2018         -DE/DX =    0.0                 !
 ! A3    A(2,1,13)             108.7152         -DE/DX =    0.0                 !
 ! A4    A(3,1,4)              111.0417         -DE/DX =    0.0                 !
 ! A5    A(3,1,13)             109.4387         -DE/DX =    0.0                 !
 ! A6    A(4,1,13)             106.4409         -DE/DX =    0.0                 !
 ! A7    A(1,4,5)              112.8482         -DE/DX =    0.0                 !
 ! A8    A(1,4,6)              110.4564         -DE/DX =    0.0                 !
 ! A9    A(1,4,7)              101.5258         -DE/DX =    0.0                 !
 ! A10   A(5,4,6)              108.0451         -DE/DX =    0.0                 !
 ! A11   A(5,4,7)              113.5899         -DE/DX =    0.0                 !
 ! A12   A(6,4,7)              110.2957         -DE/DX =    0.0                 !
 ! A13   A(4,7,8)              110.2972         -DE/DX =    0.0                 !
 ! A14   A(4,7,9)              113.5888         -DE/DX =    0.0                 !
 ! A15   A(4,7,10)             101.522          -DE/DX =    0.0                 !
 ! A16   A(8,7,9)              108.0462         -DE/DX =    0.0                 !
 ! A17   A(8,7,10)             110.4573         -DE/DX =    0.0                 !
 ! A18   A(9,7,10)             112.8494         -DE/DX =    0.0                 !
 ! A19   A(7,10,11)            113.2008         -DE/DX =    0.0                 !
 ! A20   A(7,10,12)            111.0384         -DE/DX =    0.0                 !
 ! A21   A(7,10,13)            106.4422         -DE/DX =    0.0                 !
 ! A22   A(11,10,12)           107.9382         -DE/DX =    0.0                 !
 ! A23   A(11,10,13)           108.7145         -DE/DX =    0.0                 !
 ! A24   A(12,10,13)           109.4429         -DE/DX =    0.0                 !
 ! A25   A(1,13,10)            110.0291         -DE/DX =    0.0                 !
 ! D1    D(2,1,4,5)             87.8783         -DE/DX =    0.0                 !
 ! D2    D(2,1,4,6)            -33.1817         -DE/DX =    0.0                 !
 ! D3    D(2,1,4,7)           -150.1757         -DE/DX =    0.0                 !
 ! D4    D(3,1,4,5)            -33.7184         -DE/DX =    0.0                 !
 ! D5    D(3,1,4,6)           -154.7784         -DE/DX =    0.0                 !
 ! D6    D(3,1,4,7)             88.2277         -DE/DX =    0.0                 !
 ! D7    D(13,1,4,5)          -152.7503         -DE/DX =    0.0                 !
 ! D8    D(13,1,4,6)            86.1896         -DE/DX =    0.0                 !
 ! D9    D(13,1,4,7)           -30.8043         -DE/DX =    0.0                 !
 ! D10   D(2,1,13,10)          134.326          -DE/DX =    0.0                 !
 ! D11   D(3,1,13,10)         -108.0021         -DE/DX =    0.0                 !
 ! D12   D(4,1,13,10)           12.0723         -DE/DX =    0.0                 !
 ! D13   D(1,4,7,8)            -80.6583         -DE/DX =    0.0                 !
 ! D14   D(1,4,7,9)            157.8814         -DE/DX =    0.0                 !
 ! D15   D(1,4,7,10)            36.4523         -DE/DX =    0.0                 !
 ! D16   D(5,4,7,8)             40.7724         -DE/DX =    0.0                 !
 ! D17   D(5,4,7,9)            -80.6879         -DE/DX =    0.0                 !
 ! D18   D(5,4,7,10)           157.8829         -DE/DX =    0.0                 !
 ! D19   D(6,4,7,8)            162.2309         -DE/DX =    0.0                 !
 ! D20   D(6,4,7,9)             40.7706         -DE/DX =    0.0                 !
 ! D21   D(6,4,7,10)           -80.6586         -DE/DX =    0.0                 !
 ! D22   D(4,7,10,11)         -150.1825         -DE/DX =    0.0                 !
 ! D23   D(4,7,10,12)           88.2244         -DE/DX =    0.0                 !
 ! D24   D(4,7,10,13)          -30.8117         -DE/DX =    0.0                 !
 ! D25   D(8,7,10,11)          -33.1884         -DE/DX =    0.0                 !
 ! D26   D(8,7,10,12)         -154.7816         -DE/DX =    0.0                 !
 ! D27   D(8,7,10,13)           86.1824         -DE/DX =    0.0                 !
 ! D28   D(9,7,10,11)           87.8745         -DE/DX =    0.0                 !
 ! D29   D(9,7,10,12)          -33.7186         -DE/DX =    0.0                 !
 ! D30   D(9,7,10,13)         -152.7547         -DE/DX =    0.0                 !
 ! D31   D(7,10,13,1)           12.086          -DE/DX =    0.0                 !
 ! D32   D(11,10,13,1)         134.3388         -DE/DX =    0.0                 !
 ! D33   D(12,10,13,1)        -107.9877         -DE/DX =    0.0                 !
 --------------------------------------------------------------------------------
 GradGradGradGradGradGradGradGradGradGradGradGradGradGradGradGradGradGrad

                          Input orientation:                          
 ---------------------------------------------------------------------
 Center     Atomic      Atomic             Coordinates (Angstroms)
 Number     Number       Type             X           Y           Z
 ---------------------------------------------------------------------
      1          6           0       28.043317   33.046781    3.151584
      2          1           0       27.717867   32.324116    3.909186
      3          1           0       27.441961   33.961047    3.274516
      4          6           0       27.940235   32.508288    1.719132
      5          1           0       26.957483   32.681612    1.269657
      6          1           0       28.137038   31.429556    1.700083
      7          6           0       29.077913   33.269879    1.022302
      8          1           0       28.751752   34.283211    0.758618
      9          1           0       29.438047   32.781793    0.111289
     10          6           0       30.137371   33.319024    2.130324
     11          1           0       30.782862   34.203359    2.071825
     12          1           0       30.781571   32.426387    2.101191
     13          8           0       29.424582   33.351945    3.371293
 ---------------------------------------------------------------------
                    Distance matrix (angstroms):
                    1          2          3          4          5
     1  C    0.000000
     2  H    1.096414   0.000000
     3  H    1.101192   1.777209   0.000000
     4  C    1.533792   2.209005   2.185865   0.000000
     5  H    2.203188   2.770036   2.427166   1.094474   0.000000
     6  H    2.175100   2.419934   3.061115   1.096703   1.773206
     7  C    2.377816   3.328407   2.868192   1.536198   2.214378
     8  H    2.785126   3.851370   2.854660   2.175201   2.458797
     9  H    3.355426   4.194343   3.921863   2.214363   2.739535
    10  C    2.345667   3.163573   2.997767   2.377767   3.355404
    11  H    3.163647   4.037530   3.559045   3.328390   4.194367
    12  H    2.997707   3.558874   3.858091   2.868077   3.921765
    13  O    1.431534   2.063647   2.076333   2.375853   3.309502
                    6          7          8          9         10
     6  H    0.000000
     7  C    2.175184   0.000000
     8  H    3.067178   1.096700   0.000000
     9  H    2.458747   1.094472   1.773215   0.000000
    10  C    2.785056   1.533812   2.175126   2.203219   0.000000
    11  H    3.851307   2.209012   2.419978   2.770032   1.096416
    12  H    2.854491   2.185848   3.061121   2.427155   1.101201
    13  O    2.854172   2.375853   2.854124   3.309514   1.431488
                   11         12         13
    11  H    0.000000
    12  H    1.777215   0.000000
    13  O    2.063601   2.076351   0.000000
 Stoichiometry    C4H8O
 Framework group  C1[X(C4H8O)]
 Deg. of freedom    33
 Full point group                 C1      NOp   1
 Largest Abelian subgroup         C1      NOp   1
 Largest concise Abelian subgroup C1      NOp   1
                         Standard orientation:                         
 ---------------------------------------------------------------------
 Center     Atomic      Atomic             Coordinates (Angstroms)
 Number     Number       Type             X           Y           Z
 ---------------------------------------------------------------------
      1          6           0       -1.165449   -0.430632    0.131825
      2          1           0       -1.948788   -0.823415   -0.527132
      3          1           0       -1.535618   -0.483328    1.167596
      4          6           0       -0.733771    0.996808   -0.226764
      5          1           0       -1.343897    1.761318    0.264300
      6          1           0       -0.797158    1.155695   -1.310044
      7          6           0        0.733945    0.996704    0.226793
      8          1           0        0.797382    1.155542    1.310074
      9          1           0        1.344162    1.761135   -0.264277
     10          6           0        1.165347   -0.430821   -0.131879
     11          1           0        1.948710   -0.823727    0.526981
     12          1           0        1.535421   -0.483490   -1.167694
     13          8           0       -0.000081   -1.251510    0.000043
 ---------------------------------------------------------------------
 Rotational constants (GHZ):           7.0771362           6.9659174           3.9843278

 **********************************************************************

            Population analysis using the SCF Density.

 **********************************************************************

 Orbital symmetries:
       Occupied  (A) (A) (A) (A) (A) (A) (A) (A) (A) (A) (A) (A)
                 (A) (A) (A) (A) (A) (A) (A) (A)
       Virtual   (A) (A) (A) (A) (A) (A) (A) (A) (A) (A) (A) (A)
                 (A) (A) (A) (A) (A) (A) (A) (A) (A) (A) (A) (A)
                 (A) (A) (A) (A) (A) (A) (A) (A) (A) (A) (A) (A)
                 (A) (A) (A) (A) (A) (A) (A) (A) (A) (A) (A) (A)
                 (A) (A) (A) (A) (A) (A) (A) (A) (A) (A) (A) (A)
                 (A) (A) (A) (A) (A) (A) (A) (A) (A) (A) (A)
 The electronic state is 1-A.
 Alpha  occ. eigenvalues --  -19.13179 -10.22385 -10.22384 -10.18719 -10.18698
 Alpha  occ. eigenvalues --   -1.01877  -0.78004  -0.73111  -0.59256  -0.58665
 Alpha  occ. eigenvalues --   -0.49653  -0.48518  -0.42396  -0.42352  -0.39908
 Alpha  occ. eigenvalues --   -0.35258  -0.34849  -0.33340  -0.30642  -0.23737
 Alpha virt. eigenvalues --    0.08753   0.11250   0.13598   0.14202   0.15993
 Alpha virt. eigenvalues --    0.16190   0.16876   0.18076   0.21111   0.21428
 Alpha virt. eigenvalues --    0.24023   0.26390   0.29767   0.51952   0.53356
 Alpha virt. eigenvalues --    0.53732   0.56236   0.56820   0.58032   0.63748
 Alpha virt. eigenvalues --    0.64914   0.68963   0.74925   0.78150   0.82601
 Alpha virt. eigenvalues --    0.84537   0.86761   0.86982   0.87910   0.91180
 Alpha virt. eigenvalues --    0.91406   0.93404   0.94122   0.94224   1.12629
 Alpha virt. eigenvalues --    1.14014   1.15006   1.29060   1.36839   1.41853
 Alpha virt. eigenvalues --    1.48674   1.52591   1.65766   1.72471   1.80192
 Alpha virt. eigenvalues --    1.81378   1.87579   1.88360   2.00555   2.00911
 Alpha virt. eigenvalues --    2.01345   2.01807   2.08419   2.13988   2.22737
 Alpha virt. eigenvalues --    2.22790   2.37021   2.37303   2.44496   2.45343
 Alpha virt. eigenvalues --    2.51494   2.53812   2.66021   2.69420   2.76582
 Alpha virt. eigenvalues --    2.96531   3.97961   4.17773   4.22789   4.45325
 Alpha virt. eigenvalues --    4.53482
          Condensed to atoms (all electrons):
               1          2          3          4          5          6
     1  C    4.815472   0.374271   0.364867   0.361914  -0.026293  -0.033564
     2  H    0.374271   0.611332  -0.056421  -0.032124   0.002208  -0.008318
     3  H    0.364867  -0.056421   0.648157  -0.038376  -0.003789   0.005457
     4  C    0.361914  -0.032124  -0.038376   5.093877   0.363222   0.375849
     5  H   -0.026293   0.002208  -0.003789   0.363222   0.579636  -0.034639
     6  H   -0.033564  -0.008318   0.005457   0.375849  -0.034639   0.587535
     7  C   -0.070771   0.006323  -0.005579   0.366846  -0.028038  -0.041131
     8  H    0.001334  -0.000024   0.001440  -0.041130  -0.006246   0.005233
     9  H    0.005803  -0.000119  -0.000212  -0.028040   0.001159  -0.006246
    10  C   -0.072479   0.004662   0.003561  -0.070769   0.005803   0.001334
    11  H    0.004664  -0.000402   0.000703   0.006324  -0.000119  -0.000024
    12  H    0.003560   0.000704  -0.000670  -0.005582  -0.000212   0.001440
    13  O    0.274072  -0.039936  -0.045207  -0.046354   0.002904   0.000327
               7          8          9         10         11         12
     1  C   -0.070771   0.001334   0.005803  -0.072479   0.004664   0.003560
     2  H    0.006323  -0.000024  -0.000119   0.004662  -0.000402   0.000704
     3  H   -0.005579   0.001440  -0.000212   0.003561   0.000703  -0.000670
     4  C    0.366846  -0.041130  -0.028040  -0.070769   0.006324  -0.005582
     5  H   -0.028038  -0.006246   0.001159   0.005803  -0.000119  -0.000212
     6  H   -0.041131   0.005233  -0.006246   0.001334  -0.000024   0.001440
     7  C    5.093880   0.375848   0.363221   0.361906  -0.032120  -0.038385
     8  H    0.375848   0.587531  -0.034638  -0.033562  -0.008317   0.005457
     9  H    0.363221  -0.034638   0.579636  -0.026290   0.002207  -0.003787
    10  C    0.361906  -0.033562  -0.026290   4.815460   0.374276   0.364858
    11  H   -0.032120  -0.008317   0.002207   0.374276   0.611330  -0.056422
    12  H   -0.038385   0.005457  -0.003787   0.364858  -0.056422   0.648195
    13  O   -0.046354   0.000328   0.002904   0.274087  -0.039939  -0.045209
              13
     1  C    0.274072
     2  H   -0.039936
     3  H   -0.045207
     4  C   -0.046354
     5  H    0.002904
     6  H    0.000327
     7  C   -0.046354
     8  H    0.000328
     9  H    0.002904
    10  C    0.274087
    11  H   -0.039939
    12  H   -0.045209
    13  O    8.201487
 Mulliken charges:
               1
     1  C   -0.002849
     2  H    0.137843
     3  H    0.126069
     4  C   -0.305655
     5  H    0.144404
     6  H    0.146748
     7  C   -0.305646
     8  H    0.146748
     9  H    0.144402
    10  C   -0.002846
    11  H    0.137839
    12  H    0.126053
    13  O   -0.493110
 Sum of Mulliken charges =  -0.00000
 Mulliken charges with hydrogens summed into heavy atoms:
               1
     1  C    0.261063
     4  C   -0.014504
     7  C   -0.014495
    10  C    0.261046
    13  O   -0.493110
 Electronic spatial extent (au):  <R**2>=            373.6358
 Charge=             -0.0000 electrons
 Dipole moment (field-independent basis, Debye):
    X=             -0.0000    Y=              1.7891    Z=             -0.0001  Tot=              1.7891
 Quadrupole moment (field-independent basis, Debye-Ang):
   XX=            -28.9927   YY=            -34.4581   ZZ=            -30.7664
   XY=             -0.0003   XZ=             -0.0861   YZ=              0.0001
 Traceless Quadrupole moment (field-independent basis, Debye-Ang):
   XX=              2.4130   YY=             -3.0524   ZZ=              0.6393
   XY=             -0.0003   XZ=             -0.0861   YZ=              0.0001
 Octapole moment (field-independent basis, Debye-Ang**2):
  XXX=             -0.0012  YYY=              0.8737  ZZZ=              0.0004  XYY=              0.0005
  XXY=             -3.1373  XXZ=              0.0002  XZZ=             -0.0004  YZZ=             -1.0475
  YYZ=             -0.0000  XYZ=             -0.6451
 Hexadecapole moment (field-independent basis, Debye-Ang**3):
 XXXX=           -219.9302 YYYY=           -209.5508 ZZZZ=            -63.1198 XXXY=              0.0009
 XXXZ=              0.9918 YYYX=             -0.0008 YYYZ=             -0.0000 ZZZX=              0.2199
 ZZZY=             -0.0003 XXYY=            -67.2060 XXZZ=            -46.5864 YYZZ=            -44.4234
 XXYZ=             -0.0005 YYXZ=             -0.7779 ZZXY=              0.0003
 N-N= 1.902242166806D+02 E-N=-9.213235238263D+02  KE= 2.302825660655D+02
 1\1\GINC-COMPUTE14\FOpt\RB3LYP\6-31G(d)\C4H8O1\DB4271\05-Aug-2020\0\\#
  b3lyp/6-31g* opt\\opt\\0,1\C,28.0433173889,33.0467809849,3.1515843792
 \H,27.7178667562,32.32411615,3.9091858907\H,27.4419612846,33.961047458
 5,3.274516345\C,27.9402354619,32.5082884073,1.7191324753\H,26.95748255
 97,32.6816116872,1.2696568454\H,28.1370375465,31.4295555585,1.70008262
 21\C,29.0779132502,33.2698793776,1.0223015405\H,28.7517522968,34.28321
 11351,0.7586182662\H,29.4380468715,32.7817930913,0.1112886707\C,30.137
 3714079,33.3190244374,2.1303238943\H,30.7828620853,34.2033592575,2.071
 824749\H,30.7815708182,32.4263871668,2.101191195\O,29.4245822724,33.35
 19452878,3.3712931267\\Version=ES64L-G16RevB.01\State=1-A\HF=-232.4494
 494\RMSD=6.830e-09\RMSF=5.281e-06\Dipole=-0.2866818,-0.1449469,-0.6263
 239\Quadrupole=1.0400809,0.3980868,-1.4381677,-0.0224361,-1.509363,-0.
 6069367\PG=C01 [X(C4H8O1)]\\@


 Age does not diminish the extreme disappointment of
 having a scoop of ice cream fall from the cone.
 -- Jim Fiebig
 Job cpu time:       0 days  0 hours 36 minutes 20.4 seconds.
 Elapsed time:       0 days  0 hours  4 minutes 48.9 seconds.
 File lengths (MBytes):  RWF=     10 Int=      0 D2E=      0 Chk=      3 Scr=      1
 Normal termination of Gaussian 16 at Wed Aug  5 14:08:31 2020.
