You are running Q-Chem version: 4.4.2

#
# job setting
#
local host:  argon21
current dir: /gpfsnyu/xspace/projects/PCT-example/triad/results/triad_conf3/QC
input file:  triad_conf3.inp
output file: 
nprocs     : 1
nthreads   : 96
#
# qchem installation setting
#
QC:          /gpfsnyu/packages/qchem/4.4
QCAUX:       /gpfsnyu/packages/qchem/4.4/qcaux
QCPROG:      /gpfsnyu/packages/qchem/4.4/exe/qcprog.exe
QCPROG_S:    /gpfsnyu/packages/qchem/4.4/exe/qcprog.exe_s
PARALLEL:    -DPARALLEL
QCMPI:       mpich
#
# qchem directory setting
#
qcrun:       qchem328299
QCSCRATCH:   /tmp/xs13_9697719
QCLOCALSCR:  /tmp
QCTMPDIR:    /tmp
QCFILEPREF:  /tmp/qchem328299
QCSAVEDIR:   
workdirs:    /tmp/qchem328299
workdir0:    /tmp/qchem328299
partmpdirs =  
#
# parallel setting
#
QCRSH:           ssh
QCMPI:           mpich
QCMPIRUN:        /gpfsnyu/packages/qchem/4.4/bin/mpi/mpirun_qchem
QCMACHINEFILE:   /gpfsnyu/packages/qchem/4.4/bin/mpi/machines


#
# env setting
#
exported envs:   QC QCAUX QCSCRATCH QCRUNNAME QCFILEPREF QCPROG QCPROG_S GUIFILE

Running Job 1 of 1 triad_conf3.inp
qchem triad_conf3.inp_328299.0 /tmp/qchem328299/ 1
/gpfsnyu/packages/qchem/4.4/bin/mpi/mpirun_qchem -machinefile /gpfsnyu/packages/qchem/4.4/bin/mpi/machines -np 1 /gpfsnyu/packages/qchem/4.4/exe/qcprog.exe triad_conf3.inp_328299.0 /tmp/qchem328299/

Process 0 of 1 is on argon21 - thread support 0
initial socket setup ...start
initial socket setup ...done 
now start server 0 ... 
Check license passed

                  Welcome to Q-Chem
     A Quantum Leap Into The Future Of Chemistry


 Q-Chem 4.4, Q-Chem, Inc., Pleasanton, CA (2016)

 Y. Shao,  Z. Gan,  E. Epifanovsky,  A. T. B. Gilbert,  M. Wormit,  
 J. Kussmann,  A. W. Lange,  A. Behn,  J. Deng,  X. Feng,  D. Ghosh,  
 M. Goldey,  P. R. Horn,  L. D. Jacobson,  I. Kaliman,  F. Rob,  
 R. Z. Khaliullin,  T. Kus,  A. Landau,  J. Liu,  E. I. Proynov,  Y. M. Rhee,  
 R. M. Richard,  M. A. Rohrdanz,  R. P. Steele,  E. J. Sundstrom,  
 H. L. Woodcock III,  P. M. Zimmerman,  D. Zuev,  B. Albrecht,  E. Alguire,  
 B. Austin,  S. A. Baeppler,  G. J. O. Beran,  Y. A. Bernard,  E. Berquist,  
 K. Brandhorst,  K. B. Bravaya,  S. T. Brown,  D. Casanova,  C.-M. Chang,  
 Y. Chen,  S. H. Chien,  K. D. Closser,  M. P. Coons,  D. L. Crittenden,  
 S. Dasgupta,  M. Diedenhofen,  R. A. DiStasio Jr.,  H. Do,  A. D. Dutoi,  
 R. G. Edgar,  P.-T. Fang,  S. Fatehi,  Q. Feng,  L. Fusti-Molnar,  
 A. Ghysels,  A. Golubeva-Zadorozhnaya,  J. Gomes,  A. Gunina,  
 M. W. D. Hanson-Heine,  P. H. P. Harbach,  A. W. Hauser,  J. E. Herr,  
 E. G. Hohenstein,  Z. C. Holden,  K. Hui,  T.-C. Jagau,  H. Ji,  B. Kaduk,  
 K. Khistyaev,  Jaehoon Kim,  Jihan Kim,  R. A. King,  P. Klunzinger,  
 K. Koh,  D. Kosenkov,  T. Kowalczyk,  C. M. Krauter,  A. Kunitsa,  
 K. U. Lao,  A. Laurent,  K. V. Lawler,  J. Lee,  D. Lefrancois,  S. Lehtola,  
 S. V. Levchenko,  C. Y. Lin,  Y.-S. Lin,  F. Liu,  E. Livshits,  
 R. C. Lochan,  A. Luenser,  P. Manohar,  S. F. Manzer,  S.-P. Mao,  Y. Mao,  
 N. Mardirossian,  A. V. Marenich,  L. A. Martinez-Martinez,  S. A. Maurer,  
 N. J. Mayhall,  J.-M. Mewes,  A. F. Morrison,  K. Nanda,  T. S. Nguyen-Beck,  
 C. M. Oana,  R. Olivares-Amaya,  D. P. O'Neill,  J. A. Parkhill,  
 T. M. Perrine,  R. Peverati,  P. A. Pieniazek,  F. Plasser,  A. Prociuk,  
 D. R. Rehn,  E. Rosta,  N. J. Russ,  N. Sergueev,  S. M. Sharada,  
 S. Sharma,  D. W. Small,  A. Sodt,  T. Stauch,  T. Stein,  D. Stuck,  
 Y.-C. Su,  A. J. W. Thom,  T. Tsuchimochi,  L. Vogt,  O. Vydrov,  T. Wang,  
 M. A. Watson,  J. Wenzel,  A. White,  C. F. Williams,  V. Vanovschi,  
 K. Yao,  S. Yeganeh,  S. R. Yost,  Z.-Q. You,  I. Y. Zhang,  X. Zhang,  
 Y. Zhao,  B. R. Brooks,  G. K. L. Chan,  D. M. Chipman,  C. J. Cramer,  
 W. A. Goddard III,  M. S. Gordon,  W. J. Hehre,  A. Klamt,  
 H. F. Schaefer III,  M. W. Schmidt,  C. D. Sherrill,  D. G. Truhlar,  
 A. Warshel,  X. Xu,  A. Aspuru-Guzik,  R. Baer,  A. T. Bell,  N. A. Besley,  
 J.-D. Chai,  A. Dreuw,  B. D. Dunietz,  T. R. Furlani,  S. R. Gwaltney,  
 C.-P. Hsu,  Y. Jung,  J. Kong,  D. S. Lambrecht,  W. Liang,  C. Ochsenfeld,  
 V. A. Rassolov,  L. V. Slipchenko,  J. E. Subotnik,  T. Van Voorhis,  
 J. M. Herbert,  A. I. Krylov,  P. M. W. Gill,  M. Head-Gordon

 Contributors to earlier versions of Q-Chem not listed above: 
 R. D. Adamson,  J. Baker,  E. F. C. Byrd,  A. K. Chakraborty,  C.-L. Cheng,  
 H. Dachsel,  R. J. Doerksen,  G. Hawkins,  A. Heyden,  S. Hirata,  
 G. Kedziora,  F. J. Keil,  C. Kelley,  P. P. Korambath,  W. Kurlancheek,  
 A. M. Lee,  M. S. Lee,  D. Liotard,  I. Lotan,  P. E. Maslen,  N. Nair,  
 D. Neuhauser,  R. Olson,  B. Peters,  J. Ritchie,  N. E. Schultz,  
 N. Shenvi,  A. C. Simmonett,  K. S. Thanthiriwatte,  Q. Wu,  W. Zhang

 Please cite Q-Chem as follows:
 Y. Shao et al., Mol. Phys. 113, 184-215 (2015)
 DOI: 10.1080/00268976.2014.952696

 Q-Chem 4.4.2 for Intel X86 Linux

 Parts of Q-Chem use Armadillo 5.200.1 (Boston Tea Smuggler).
 http://arma.sourceforge.net/

 Q-Chem begins on Thu Jun 20 23:39:18 2024  

Host: 
0

     Scratch files written to /tmp/qchem328299//
 Dec716 11556_ 22328  22283 6803   
 Parallel job on  1  processors
Processing $rem in /gpfsnyu/packages/qchem/4.4/config/preferences.
 MEM_TOTAL  2000 
The previous job contains 0 fragments, simply inherited here
FILE_GEOM_ORG=        593

Checking the input file for inconsistencies... 	...done.

 Q-Chem warning in module /home/scratch/svnadmin/11556_zgan/qchem/forms1/BasisType.C, line 1555:

 You are not using the predefined 5D/6D in this basis set.


--------------------------------------------------------------
User input:
--------------------------------------------------------------
$molecule
read                  triad_conf3.txt
$end

$rem
JOBTYPE               sp        ! single point charge calculation
EXCHANGE              general   !
CORRELATION           none      !
BASIS                 SV       !
SYM_IGNORE            TRUE      !
purecart              2111      !
separate_jk           TRUE      !
derscreen             FALSE     !
ideriv                0         !
OMEGA                 157       ! geometric parameter tuned for geometry
MAX_SCF_CYCLES        5000      !
scf_convergence       8         ! for SP, default is 5 ; for opt/freq, default is 8
CIS_DYNAMIC_MEM       True      ! using dynamic memory for large TDDFT calculation
MEM_STATIC            16000     ! static memory for storing data.
MEM_TOTAL             180000    !
max_cis_cycles        500000    !
CIS_N_ROOTS           25        ! number of excited states
CIS_SINGLETS          true      ! compute singlet excited states, default is true
CIS_TRIPLETS          false     ! compute triplet excited states, default is true
RPA                   false     ! false: TDA-DFT, true: TDA- and TDDFT , 2: TDDFT
sts_fcd               true      ! compute electronic couplings with FCD method
sts_donor             61-207    ! donor atom index
sts_acceptor          1-60      ! acceptor atom index
POP_MULLIKEN          -1        ! get Mulliken Charge for ground and excited states
GUI                   2         ! for producing wavefunction .fchk file
state_analysis        true      ! state analysis module
MOLDEN_FORMAT         true      ! generate molden formatted NTO
$end

$xc_functional
X HF 1.0
X BNL 1.0
C LYP 1.0
$end

--------------------------------------------------------------
 ----------------------------------------------------------------
             Standard Nuclear Orientation (Angstroms)
    I     Atom           X                Y                Z
 ----------------------------------------------------------------
    1      C      40.0354232788    34.0774765015    50.6230583191
    2      C      39.3375015259    39.2456588745    54.4122352600
    3      C      37.7822418213    37.7505607605    53.7549095154
    4      C      37.7874031067    35.5453605652    52.8895454407
    5      C      41.7508468628    39.4723320007    54.5249443054
    6      C      40.5537376404    39.8450775146    53.9777030945
    7      C      40.5060310364    37.8795623779    55.8136940002
    8      C      38.6960906982    35.9232559204    55.0635795593
    9      C      41.0207328796    33.3150634766    52.4584770203
   10      C      41.7626724243    38.4628143311    55.4941520691
   11      C      39.0670547485    33.9857864380    51.5865974426
   12      C      44.0527305603    37.9965400696    52.3011512756
   13      C      42.7496833801    39.5299530029    53.5501518250
   14      C      43.9683799744    35.8060226440    51.4200782776
   15      C      43.0775718689    34.2826156616    53.0861396790
   16      C      43.3669319153    34.6029853821    51.7157249451
   17      C      43.7245788574    37.4989662170    54.4290809631
   18      C      40.7547073364    36.4983558655    55.9989738464
   19      C      39.8762168884    35.4876174927    55.5981025696
   20      C      41.6049079895    34.0674552917    54.7649269104
   21      C      38.9829292297    38.7133827209    49.7577323914
   22      C      40.1545410156    39.5685310364    50.3603096008
   23      C      38.1704521179    38.4735908508    51.0485954285
   24      C      38.6760444641    39.2681312561    52.0732231140
   25      C      42.4195785522    35.2759780884    49.8457221985
   26      C      41.4932441711    39.1472244263    50.1946067810
   27      C      38.1766128540    35.0393142700    51.6707954407
   28      C      43.4591865540    38.4987754822    51.1482124329
   29      C      42.1367835999    39.9597244263    52.3849754333
   30      C      43.3621940613    36.2272262573    50.2890357971
   31      C      37.6630554199    37.2157287598    51.3532447815
   32      C      44.0663032532    36.3325576782    53.7662162781
   33      C      43.5657615662    35.1439590454    54.0991935730
   34      C      40.2840576172    34.3243522644    55.0118217468
   35      C      42.0673828125    36.3100318909    55.6779594421
   36      C      39.4642829895    37.4135932922    49.0364570618
   37      C      40.9692649841    37.1057205200    49.1097755432
   38      C      39.0223922729    36.0454673767    49.6683006287
   39      C      41.1881484985    35.7077560425    49.2804908752
   40      C      41.9584503174    33.5942916870    53.4626121521
   41      C      39.7878227234    39.9566802979    51.6795387268
   42      C      38.1661186218    36.0762863159    50.7779426575
   43      C      39.9807434082    35.1283073425    49.6733741760
   44      C      37.4775962830    36.8892326355    52.7195243835
   45      C      42.4313430786    34.2378005981    50.7722816467
   46      C      41.8876113892    38.0258789062    49.5702934265
   47      C      42.4932136536    39.4233322144    51.2034645081
   48      C      38.4553260803    38.9234352112    53.4182853699
   49      C      40.7657241821    40.1904258728    52.6346931458
   50      C      42.5391616821    35.1029701233    55.1218376160
   51      C      43.0781974792    37.6250152588    50.1629600525
   52      C      41.2275314331    33.6424789429    51.1443061829
   53      C      39.3101959229    38.1985893250    55.2638740540
   54      C      38.4037094116    37.2587623596    54.8842811584
   55      C      38.3203582764    35.0577659607    54.0585289001
   56      C      39.6648368835    33.5284233093    52.7619132996
   57      C      43.7452468872    38.5437545776    53.5374488831
   58      C      44.2588882446    36.6584014893    52.4528160095
   59      C      39.3271598816    34.0234298706    54.0280036926
   60      C      42.7351646423    37.4634170532    55.4076881409
   61      C      38.0670280457    39.3503799438    48.6803474426
   62      N      38.0410423279    38.6975517273    47.5675086975
   63      C      38.8936996460    37.5009269714    47.5827980042
   64      H      39.7679786682    37.5710716248    46.9305915833
   65      H      38.2552642822    36.6205635071    47.4731407166
   66      C      36.8987884521    43.5469360352    48.4453773499
   67      C      37.0632934570    42.9184722900    49.7161598206
   68      H      36.8763275146    43.3872375488    50.6788978577
   69      C      37.4520301819    41.5589981079    49.7039299011
   70      H      37.3500518799    41.0039329529    50.6329460144
   71      C      37.6860923767    40.8308219910    48.5706520081
   72      C      37.1694374084    42.8418045044    47.2564888000
   73      H      37.2353706360    43.3188133240    46.2819709778
   74      C      37.5735244751    41.4632225037    47.3057289124
   75      H      37.8775444031    40.8281631470    46.4775733948
   76      C      36.4470558167    44.9889793396    48.4549140930
   77      C      36.1618041992    45.6734390259    49.7085609436
   78      C      35.2735481262    45.4148406982    50.7537193298
   79      H      34.5723228455    44.5951423645    50.8703422546
   80      C      35.4127960205    46.4666175842    51.7074470520
   81      H      34.7789382935    46.6542587280    52.5678215027
   82      C      36.5077247620    47.2139015198    51.2673377991
   83      N      36.8784561157    46.7286949158    50.0700645447
   84      H      37.6741371155    47.1329231262    49.5950737000
   85      C      36.9818458557    48.4485816956    51.7833213806
   86      H      36.5460739136    48.7651481628    52.7297935486
   87      C      37.9546394348    49.2711791992    51.2820854187
   88      C      38.3554306030    50.4498786926    51.9450111389
   89      H      38.0185699463    50.7914886475    52.9181709290
   90      C      39.1856193542    51.0529403687    51.0890998840
   91      H      39.8032455444    51.9089965820    51.3399696350
   92      C      39.3793754578    50.1290702820    49.9375343323
   93      N      38.4826316833    49.1346778870    50.0260047913
   94      C      40.1786880493    50.3927001953    48.7626838684
   95      C      39.6458015442    50.2701072693    47.4801521301
   96      C      39.6684455872    51.1100463867    46.3260612488
   97      H      40.2832145691    51.9764976501    46.1057395935
   98      C      38.7210006714    50.6219291687    45.4483757019
   99      H      38.5144500732    51.0854988098    44.4893760681
  100      C      38.1628074646    49.4025154114    45.8914833069
  101      N      38.6912803650    49.3176918030    47.1224250793
  102      H      38.5034523010    48.4906120300    47.6726799011
  103      C      37.3843803406    48.5420150757    45.2974739075
  104      H      37.1781730652    48.7810516357    44.2552375793
  105      C      36.8882942200    47.2838897705    45.8086280823
  106      C      35.9420585632    46.3675117493    45.2803916931
  107      H      35.4601554871    46.6082839966    44.3385734558
  108      C      35.6696891785    45.3721885681    46.1845207214
  109      H      34.8715858459    44.6455116272    46.0740470886
  110      C      36.5238647461    45.6212081909    47.2113533020
  111      N      37.2249450684    46.7114791870    46.9919853210
  112      C      44.3698692322    51.2161941528    49.5163612366
  113      C      43.9037017822    51.2548980713    48.2117424011
  114      H      44.5987014771    51.5583152771    47.4329643250
  115      C      42.5376510620    50.9619064331    48.0142326355
  116      H      42.1130332947    50.9326477051    47.0140266418
  117      C      41.6249275208    50.5899620056    49.0572700500
  118      C      43.5609664917    50.8213119507    50.5692558289
  119      H      44.0526618958    50.8394737244    51.5385246277
  120      C      42.2030220032    50.4961166382    50.3825035095
  121      H      41.6941680908    50.1613235474    51.2828102112
  122      N      45.7144050598    51.5772132874    49.8264884949
  123      H      46.2441368103    50.8552131653    50.2914390564
  124      C      46.3673248291    52.7218513489    49.4325752258
  125      O      45.7272682190    53.5048751831    48.7146339417
  126      C      47.7668151855    52.9835205078    49.9104957581
  127      C      48.6333236694    53.6718559265    49.1291313171
  128      H      48.1996383667    53.9406394958    48.1693153381
  129      C      49.9333648682    53.9222106934    49.4703559875
  130      C      50.2866363525    53.6131591797    50.8218269348
  131      H      51.2892303467    53.8970298767    51.1313285828
  132      C      49.5198059082    52.8598289490    51.6412925720
  133      H      49.8192520142    52.6221008301    52.6588325500
  134      C      48.2217864990    52.6074295044    51.2399864197
  135      H      47.5856781006    51.9414291382    51.8173789978
  136      C      50.9090194702    54.4949302673    48.5506782532
  137      H      50.3911743164    54.6442718506    47.6043891907
  138      C      52.2227020264    54.8074569702    48.7316932678
  139      H      52.5956802368    54.6166610718    49.7368812561
  140      C      53.2118301392    55.2492675781    47.7645759583
  141      C      52.7480545044    55.1227645874    46.3477668762
  142      H      51.9081268311    54.4342727661    46.2339057922
  143      H      53.4808731079    54.5973014832    45.7318687439
  144      H      52.6147918701    56.1424407959    45.9803962708
  145      C      54.5160522461    55.4657897949    48.0210227966
  146      H      54.7849426270    55.4776382446    49.0762367249
  147      C      55.5187530518    55.7123336792    47.0043907166
  148      H      55.2420043945    55.8423080444    45.9591941833
  149      C      56.7870330811    56.0032272339    47.2704582214
  150      H      57.0867919922    55.9341964722    48.3151130676
  151      C      57.9219970703    56.3962020874    46.5211601257
  152      C      58.2441329956    55.5998458862    45.2760734558
  153      H      57.4816207886    54.8210525513    45.2089805603
  154      H      58.2547149658    56.2850189209    44.4258384705
  155      H      59.1562805176    55.0261306763    45.4530143738
  156      C      58.8243331909    57.2888183594    47.0005378723
  157      H      58.4545059204    57.8941421509    47.8268241882
  158      C      60.0394973755    57.7132873535    46.2731895447
  159      H      60.1955413818    57.4872131348    45.2194099426
  160      C      60.9815063477    58.4926300049    46.9029121399
  161      H      60.8648300171    58.7879028320    47.9446067810
  162      C      62.3266372681    58.9687500000    46.3968925476
  163      H      62.4378280640    58.7128219604    45.3442497253
  164      C      63.2137145996    59.8088607788    46.9550132751
  165      C      62.8637542725    60.5107345581    48.2898292542
  166      H      61.8711318970    60.9563369751    48.1971321106
  167      H      62.6499862671    59.8456420898    49.1291313171
  168      H      63.6334609985    61.1590118408    48.7137947083
  169      C      64.3884201050    60.2743453979    46.2040061951
  170      H      64.5033721924    59.9164352417    45.1819419861
  171      C      65.5571136475    60.8038864136    46.6505241394
  172      H      65.6901702881    60.7955093384    47.7313270569
  173      C      66.8042068481    61.0444869995    45.8471031189
  174      H      66.7086410522    60.8514938354    44.7796058655
  175      C      68.0120697021    61.4464492798    46.2904624939
  176      C      68.4663772583    61.7874221802    47.6376228333
  177      H      67.5901184082    61.5910263062    48.2589683533
  178      H      69.2062606812    60.9910430908    47.7416496277
  179      H      68.8741226196    62.7997665405    47.6743965149
  180      C      69.1084442139    61.6901550293    45.3208656311
  181      H      69.9714355469    62.2425842285    45.6896400452
  182      C      69.1534576416    61.2274246216    44.0655250549
  183      H      68.3561553955    60.6046905518    43.6625022888
  184      C      70.2929534912    61.5349426270    43.1423530579
  185      C      71.5845184326    61.3934402466    43.3867835999
  186      C      72.1784896851    60.7833557129    44.6870765686
  187      H      72.9077377319    59.9811630249    44.5561256409
  188      H      72.7520599365    61.5001678467    45.2784004211
  189      H      71.4012832642    60.3035507202    45.2855720520
  190      C      72.6597671509    61.7304000854    42.4492607117
  191      H      73.5013885498    61.0350799561    42.4235267639
  192      H      72.9391403198    62.6954193115    42.8772315979
  193      C      72.2086944580    61.8342971802    41.0248832703
  194      H      72.1416702271    60.8909454346    40.4789314270
  195      H      72.9668731689    62.2983398438    40.3906135559
  196      C      70.9324798584    62.6505050659    40.9287681580
  197      H      71.0923843384    63.6596984863    41.3140449524
  198      H      70.6331710815    62.7740859985    39.8858909607
  199      C      69.8223876953    61.9744415283    41.7014350891
  200      C      68.6898269653    62.9339447021    41.8104515076
  201      H      68.9211349487    63.8601531982    42.3406333923
  202      H      68.3896560669    63.2328491211    40.8039588928
  203      H      67.7638320923    62.5764007568    42.2656059265
  204      C      69.2917175293    60.7964096069    40.8260536194
  205      H      69.0398788452    61.1254119873    39.8157157898
  206      H      70.0665740967    60.0303497314    40.8982582092
  207      H      68.3942337036    60.3436431885    41.2526435852
 ----------------------------------------------------------------
 Nuclear Repulsion Energy = 24565.5288905621 hartrees
 There are      455 alpha and      455 beta electrons
 Requested basis set is SV
 There are 831 shells and 1387 basis functions

 Total QAlloc Memory Limit 180000 MB
 Mega-Array Size     15641 MB
 MEM_STATIC part     16000 MB
 A cutoff of  1.0D-11 yielded  75804 shell pairs
 There are    245798 function pairs
 
 -------------------------------------------------------
 OpenMP Integral Computing Module                       
 Release: version 1.0, May 2013, Q-Chem Inc. Pittsburgh 
 -------------------------------------------------------
 Integral Job Info:
 Integral job number is                      11
 Integral operator is                         1
 short-range coefficients                     0
 long-range coefficients              100000000
 Omega coefficients                         157
 if combine SR and LR in K                    0
 Integral screening is                        0
 Integral computing path is                   2
 max size of driver memory is            800000
 size of driver memory is                 45569
 size of scratch memory is              4685044
 max col of scratch BK array                289
 max len of scratch array in speh3           22
 max len of scratch index in speh4            8
 max int batch size is                      520
 min int batch size is                       52
 fixed nKL is                                52
 max L of basis functions is                  1
 order of int derivative is                   0
 number of shells is                        831
 number of basis is                        1387
 number of cartesian basis is              1387
 number of contracted shell pairs         75804
 number of primitive shell pairs         283884
 maxK2 (contraction) of shell pair           49
 max number of K2 of shell pair               1
 max number of CS2 of shell pair          11341
 max number of PS2 of shell pair          51345
 mem total for path MDJ                 1788282
 -------------------------------------------------------
 Smallest overlap matrix eigenvalue = 2.00E-05

 Scale SEOQF with 1.000000e-04/1.000000e-04/1.000000e-04

 Standard Electronic Orientation quadrupole field applied
 Nucleus-field energy     =    -0.0000000205 hartrees
 Guess from superposition of atomic densities
 Warning:  Energy on first SCF cycle will be non-variational
 A restricted hybrid HF-DFT SCF calculation will be
 performed using Pulay DIIS extrapolation
 Exchange:     1.0000 Hartree-Fock + 1.0000 SRLSDA
 Correlation:  1.0000 LYP
 Using SG-1 standard quadrature grid
 SCF converges when DIIS error is below 1.0E-08
 using 96 threads for integral computing 
 using 96 threads for integral computing 
 K construction time:  CPU 105.38 s  wall 2.20 s
 -------------------------------------------------------
 OpenMP BLAS3 based DFT computing Module                
 Release: version 1.0, May 2013, Q-Chem Inc. Pittsburgh 
 -------------------------------------------------------
 ---------------------------------------
  Cycle       Energy         DIIS Error
 ---------------------------------------
    1   -5454.5696753761      3.05E-02
 K construction time:  CPU 728.77 s  wall 26.36 s
    2   -5398.7321984261      1.93E-03
 K construction time:  CPU 673.01 s  wall 24.73 s
    3   -5398.5157877687      2.41E-03
 K construction time:  CPU 653.28 s  wall 23.06 s
    4   -5399.7288611739      7.66E-04
 K construction time:  CPU 595.38 s  wall 21.27 s
    5   -5399.8509966304      1.75E-04
 K construction time:  CPU 560.04 s  wall 20.04 s
    6   -5399.8566850057      7.60E-05
 K construction time:  CPU 517.46 s  wall 18.26 s
    7   -5399.8580176913      2.64E-05
 K construction time:  CPU 472.26 s  wall 17.18 s
    8   -5399.8581992455      1.06E-05
 K construction time:  CPU 443.33 s  wall 16.00 s
    9   -5399.8582374867      4.30E-06
 K construction time:  CPU 416.07 s  wall 14.83 s
   10   -5399.8582468324      2.00E-06
 K construction time:  CPU 402.65 s  wall 14.74 s
   11   -5399.8582508228      1.24E-06
 K construction time:  CPU 366.71 s  wall 13.15 s
   12   -5399.8582518520      4.71E-07
 K construction time:  CPU 342.63 s  wall 11.87 s
   13   -5399.8582522010      3.10E-07
 K construction time:  CPU 314.85 s  wall 10.96 s
   14   -5399.8582523628      1.62E-07
 K construction time:  CPU 289.72 s  wall 10.19 s
   15   -5399.8582523778      1.11E-07
 K construction time:  CPU 709.30 s  wall 25.71 s
   16   -5399.8582525586      5.11E-08
 K construction time:  CPU 259.89 s  wall 9.55 s
   17   -5399.8582525142      3.04E-08
 K construction time:  CPU 258.49 s  wall 9.05 s
   18   -5399.8582525324      1.46E-08
 K construction time:  CPU 229.91 s  wall 8.22 s
   19   -5399.8582526511      7.75E-09 Convergence criterion met
 ---------------------------------------
 SCF time:  CPU 19330.38 s  wall 740.68 s
 SCF   energy in the final basis set = -5399.8582526511
 Total energy in the final basis set = -5399.8582526511
 Direct TDDFT/TDA calculation will be performed
 Exchange:     1.0000 Hartree-Fock + 1.0000 SRLSDA
 Correlation:  1.0000 LYP
 Using SG-1 standard quadrature grid
 Singlet excitation energies requested
 CIS energy converged when residual is below 10e- 6
 ---------------------------------------------------
 Iter    Rts Conv    Rts Left    Ttl Dev     Max Dev
 ---------------------------------------------------
   1         0          25      0.000773    0.000162
   2         2          23      0.000429    0.000061
   3         3          22      0.000459    0.000114
   4         3          22      0.000638    0.000096
   5         3          22      0.000644    0.000094
   6         3          22      0.000446    0.000077
   7         5          20      0.000398    0.000056
   8         8          17      0.000245    0.000033
   9         9          16      0.000220    0.000039
  10         9          16      0.000166    0.000039
  11        12          13      0.000094    0.000020
  12        16           9      0.000051    0.000011
  13        18           7      0.000029    0.000006
  14        20           5      0.000019    0.000003
  15        21           4      0.000012    0.000002
  16        25           0      0.000008    0.000001    Roots Converged
 ---------------------------------------------------
 
 
 ---------------------------------------------------
         TDDFT/TDA Excitation Energies              
 ---------------------------------------------------

 Excited state   1: excitation energy (eV) =    1.7185
    Total energy for state   1:  -5399.795097494319
    Multiplicity: Singlet 
    Trans. Mom.: -0.2388 X  -1.0749 Y   0.1318 Z
    Strength   :     0.0517821164
    D(450) --> V(  3) amplitude = -0.7515
    D(450) --> V(  4) amplitude = -0.4341

 Excited state   2: excitation energy (eV) =    1.7274
    Total energy for state   2:  -5399.794773684775
    Multiplicity: Singlet 
    Trans. Mom.: -1.2227 X  -3.0734 Y   0.3521 Z
    Strength   :     0.4682593004
    D(450) --> V(  3) amplitude =  0.2299
    D(452) --> V(  7) amplitude =  0.2212
    D(455) --> V(  1) amplitude =  0.6815
    D(455) --> V(  3) amplitude = -0.4504
    D(455) --> V(  4) amplitude = -0.2652

 Excited state   3: excitation energy (eV) =    1.7837
    Total energy for state   3:  -5399.792701530447
    Multiplicity: Singlet 
    Trans. Mom.:  0.0981 X  -0.0902 Y  -0.0558 Z
    Strength   :     0.0009119752
    D(449) --> V(  1) amplitude =  0.9341
    D(449) --> V(  2) amplitude =  0.2186

 Excited state   4: excitation energy (eV) =    1.8157
    Total energy for state   4:  -5399.791525494640
    Multiplicity: Singlet 
    Trans. Mom.:  0.0049 X   0.2897 Y   0.0968 Z
    Strength   :     0.0041507219
    D(449) --> V(  1) amplitude =  0.2236
    D(449) --> V(  2) amplitude = -0.9334

 Excited state   5: excitation energy (eV) =    1.8212
    Total energy for state   5:  -5399.791324004321
    Multiplicity: Singlet 
    Trans. Mom.: -0.3404 X  -0.1534 Y  -0.1838 Z
    Strength   :     0.0077279762
    D(452) --> V(  3) amplitude =  0.5153
    D(452) --> V(  4) amplitude =  0.2978
    D(455) --> V(  1) amplitude = -0.5047
    D(455) --> V(  7) amplitude =  0.5156

 Excited state   6: excitation energy (eV) =    1.8794
    Total energy for state   6:  -5399.789186350421
    Multiplicity: Singlet 
    Trans. Mom.:  1.4628 X   2.4041 Y  -0.2043 Z
    Strength   :     0.3665672944
    D(452) --> V(  3) amplitude =  0.3246
    D(452) --> V(  7) amplitude = -0.2127
    D(455) --> V(  1) amplitude =  0.4150
    D(455) --> V(  2) amplitude =  0.3486
    D(455) --> V(  3) amplitude =  0.5506
    D(455) --> V(  4) amplitude =  0.2650
    D(455) --> V(  7) amplitude =  0.2998

 Excited state   7: excitation energy (eV) =    1.9261
    Total energy for state   7:  -5399.787469127317
    Multiplicity: Singlet 
    Trans. Mom.: -0.6099 X  -0.8485 Y   0.0425 Z
    Strength   :     0.0516103305
    D(455) --> V(  2) amplitude =  0.9116
    D(455) --> V(  3) amplitude = -0.2265

 Excited state   8: excitation energy (eV) =    1.9418
    Total energy for state   8:  -5399.786893084411
    Multiplicity: Singlet 
    Trans. Mom.:  0.0236 X  -0.1733 Y  -0.0655 Z
    Strength   :     0.0016586831
    D(447) --> V(  1) amplitude = -0.9234

 Excited state   9: excitation energy (eV) =    2.0153
    Total energy for state   9:  -5399.784192007399
    Multiplicity: Singlet 
    Trans. Mom.: -0.0705 X  -0.0456 Y  -0.0165 Z
    Strength   :     0.0003616094
    D(445) --> V(  2) amplitude =  0.4332
    D(447) --> V(  2) amplitude =  0.8476

 Excited state  10: excitation energy (eV) =    2.1247
    Total energy for state  10:  -5399.780172691209
    Multiplicity: Singlet 
    Trans. Mom.:  0.0077 X  -0.0340 Y   0.0559 Z
    Strength   :     0.0002259948
    D(442) --> V(  1) amplitude = -0.3849
    D(442) --> V(  2) amplitude = -0.3486
    D(445) --> V(  1) amplitude = -0.4596
    D(445) --> V(  2) amplitude = -0.5557
    D(447) --> V(  2) amplitude =  0.2381

 Excited state  11: excitation energy (eV) =    2.1482
    Total energy for state  11:  -5399.779307513342
    Multiplicity: Singlet 
    Trans. Mom.: -0.2881 X  -0.7634 Y   0.1910 Z
    Strength   :     0.0369607504
    D(448) --> V(  3) amplitude =  0.7705
    D(448) --> V(  4) amplitude =  0.4439

 Excited state  12: excitation energy (eV) =    2.2004
    Total energy for state  12:  -5399.777388995019
    Multiplicity: Singlet 
    Trans. Mom.: -0.0283 X   0.0905 Y   0.0443 Z
    Strength   :     0.0005901582
    D(441) --> V(  2) amplitude = -0.2200
    D(442) --> V(  1) amplitude =  0.2822
    D(442) --> V(  2) amplitude = -0.2272
    D(445) --> V(  1) amplitude =  0.5472
    D(445) --> V(  2) amplitude = -0.5583
    D(449) --> V(  4) amplitude = -0.2491

 Excited state  13: excitation energy (eV) =    2.2628
    Total energy for state  13:  -5399.775095763794
    Multiplicity: Singlet 
    Trans. Mom.:  0.0468 X  -0.0212 Y  -0.0030 Z
    Strength   :     0.0001471434
    D(442) --> V(  1) amplitude = -0.6410
    D(443) --> V(  1) amplitude =  0.2368
    D(445) --> V(  1) amplitude =  0.5731

 Excited state  14: excitation energy (eV) =    2.2957
    Total energy for state  14:  -5399.773888135968
    Multiplicity: Singlet 
    Trans. Mom.:  0.0196 X  -0.0504 Y  -0.0409 Z
    Strength   :     0.0002587577
    D(442) --> V(  2) amplitude = -0.7368
    D(443) --> V(  2) amplitude =  0.2673
    D(445) --> V(  2) amplitude =  0.3055
    D(447) --> V(  2) amplitude = -0.2962

 Excited state  15: excitation energy (eV) =    2.3745
    Total energy for state  15:  -5399.770993204516
    Multiplicity: Singlet 
    Trans. Mom.:  0.0305 X   0.0143 Y   0.0136 Z
    Strength   :     0.0000767869
    D(441) --> V(  1) amplitude =  0.5903
    D(442) --> V(  1) amplitude = -0.2334
    D(447) --> V(  4) amplitude = -0.3088
    D(449) --> V(  3) amplitude =  0.2674
    D(449) --> V(  4) amplitude = -0.4538

 Excited state  16: excitation energy (eV) =    2.3881
    Total energy for state  16:  -5399.770492996579
    Multiplicity: Singlet 
    Trans. Mom.:  0.0592 X  -0.0271 Y  -0.0033 Z
    Strength   :     0.0002484821
    D(455) --> V(  3) amplitude = -0.4820
    D(455) --> V(  4) amplitude =  0.8474

 Excited state  17: excitation energy (eV) =    2.4461
    Total energy for state  17:  -5399.768360829917
    Multiplicity: Singlet 
    Trans. Mom.:  0.1433 X  -0.0660 Y   0.0695 Z
    Strength   :     0.0017815950
    D(441) --> V(  1) amplitude = -0.5599
    D(442) --> V(  1) amplitude = -0.2878
    D(449) --> V(  3) amplitude =  0.3383
    D(449) --> V(  4) amplitude = -0.5480

 Excited state  18: excitation energy (eV) =    2.5274
    Total energy for state  18:  -5399.765371409183
    Multiplicity: Singlet 
    Trans. Mom.: -0.1156 X  -0.1249 Y   0.0763 Z
    Strength   :     0.0021536001
    D(441) --> V(  1) amplitude =  0.2352
    D(445) --> V(  3) amplitude =  0.3574
    D(445) --> V(  4) amplitude = -0.6156
    D(447) --> V(  3) amplitude = -0.2722
    D(447) --> V(  4) amplitude =  0.4709

 Excited state  19: excitation energy (eV) =    2.5911
    Total energy for state  19:  -5399.763032023097
    Multiplicity: Singlet 
    Trans. Mom.: -0.0194 X   0.0625 Y  -0.0139 Z
    Strength   :     0.0002843378
    D(442) --> V(  3) amplitude =  0.4225
    D(442) --> V(  4) amplitude = -0.7202
    D(443) --> V(  4) amplitude =  0.2524
    D(447) --> V(  4) amplitude =  0.2193

 Excited state  20: excitation energy (eV) =    2.6477
    Total energy for state  20:  -5399.760950620792
    Multiplicity: Singlet 
    Trans. Mom.: -0.0910 X  -0.1022 Y  -0.0173 Z
    Strength   :     0.0012340258
    D(441) --> V(  1) amplitude =  0.2769
    D(442) --> V(  2) amplitude =  0.2152
    D(442) --> V(  4) amplitude =  0.2455
    D(445) --> V(  3) amplitude = -0.2920
    D(445) --> V(  4) amplitude =  0.4945
    D(447) --> V(  3) amplitude = -0.3126
    D(447) --> V(  4) amplitude =  0.5245

 Excited state  21: excitation energy (eV) =    2.6484
    Total energy for state  21:  -5399.760925359038
    Multiplicity: Singlet 
    Trans. Mom.: -0.0462 X   0.0047 Y  -0.0002 Z
    Strength   :     0.0001401941
    D(454) --> V(  1) amplitude =  0.9828

 Excited state  22: excitation energy (eV) =    2.6784
    Total energy for state  22:  -5399.759824647383
    Multiplicity: Singlet 
    Trans. Mom.: -0.1064 X   0.1625 Y  -0.0881 Z
    Strength   :     0.0029855445
    D(441) --> V(  1) amplitude = -0.2478
    D(441) --> V(  2) amplitude = -0.8567

 Excited state  23: excitation energy (eV) =    2.7164
    Total energy for state  23:  -5399.758425620114
    Multiplicity: Singlet 
    Trans. Mom.:  0.0255 X   0.0040 Y  -0.0020 Z
    Strength   :     0.0000445694
    D(454) --> V(  2) amplitude =  0.9862

 Excited state  24: excitation energy (eV) =    2.7749
    Total energy for state  24:  -5399.756278425610
    Multiplicity: Singlet 
    Trans. Mom.: -0.0076 X   0.5721 Y   1.2895 Z
    Strength   :     0.1352901579
    D(448) --> V(  7) amplitude =  0.2250
    D(450) --> V(  7) amplitude =  0.7112
    D(452) --> V(  1) amplitude =  0.2123
    D(452) --> V(  3) amplitude = -0.2420
    D(455) --> V(  7) amplitude =  0.3703

 Excited state  25: excitation energy (eV) =    2.8085
    Total energy for state  25:  -5399.755040493482
    Multiplicity: Singlet 
    Trans. Mom.:  6.5867 X   2.1396 Y  -1.3331 Z
    Strength   :     3.4225067412
    D(454) --> V(  8) amplitude = -0.7194
    D(455) --> V( 11) amplitude =  0.4755
 
 ---------------------------------------------------
  Timing summary (seconds)
  CPU time     147944.53s
  System time       0.30s
  Wall time     10355.04s
================================================================================
                             Excited State Analysis
================================================================================

Created directory /tmp/qchem328299/plots
  ----------------------------------------------------------------------------
                            Density Matrix Analysis
  ----------------------------------------------------------------------------

  Excited state   1:
  ------------------
    
    
    Exciton analysis of the difference density matrix
      <r_h> [Ang]:                  [ 37.326896,  46.784590,  47.169762]
      <r_e> [Ang]:                  [ 37.472850,  45.912435,  48.358511]
      |<r_e - r_h>| [Ang]:            1.481581
      Hole size [Ang]:                1.913363
        Cartesian components [Ang]: [  0.983581,   1.238883,   1.076427]
      Electron size [Ang]:            4.261079
        Cartesian components [Ang]: [  1.971142,   3.268140,   1.894902]

  Excited state   2:
  ------------------
    
    
    Exciton analysis of the difference density matrix
      <r_h> [Ang]:                  [ 38.303449,  47.512656,  48.361517]
      <r_e> [Ang]:                  [ 38.888579,  42.891933,  49.853906]
      |<r_e - r_h>| [Ang]:            4.890877
      Hole size [Ang]:                4.338377
        Cartesian components [Ang]: [  2.374790,   3.089734,   1.906681]
      Electron size [Ang]:            6.538512
        Cartesian components [Ang]: [  2.503189,   5.366204,   2.773091]

  Excited state   3:
  ------------------
    
    
    Exciton analysis of the difference density matrix
      <r_h> [Ang]:                  [ 40.446474,  36.955705,  51.922076]
      <r_e> [Ang]:                  [ 40.868966,  36.954670,  52.201880]
      |<r_e - r_h>| [Ang]:            0.506746
      Hole size [Ang]:                3.709397
        Cartesian components [Ang]: [  1.994101,   2.312917,   2.105612]
      Electron size [Ang]:            3.867931
        Cartesian components [Ang]: [  1.929155,   2.352077,   2.388929]

  Excited state   4:
  ------------------
    
    
    Exciton analysis of the difference density matrix
      <r_h> [Ang]:                  [ 40.514849,  36.946111,  52.046219]
      <r_e> [Ang]:                  [ 40.738286,  36.787026,  52.627303]
      |<r_e - r_h>| [Ang]:            0.642566
      Hole size [Ang]:                3.739932
        Cartesian components [Ang]: [  2.002830,   2.335861,   2.125915]
      Electron size [Ang]:            3.835871
        Cartesian components [Ang]: [  2.355351,   2.270712,   2.002521]

  Excited state   5:
  ------------------
    
    
    Exciton analysis of the difference density matrix
      <r_h> [Ang]:                  [ 37.962865,  47.606878,  48.422623]
      <r_e> [Ang]:                  [ 38.629786,  44.503445,  49.663927]
      |<r_e - r_h>| [Ang]:            3.408360
      Hole size [Ang]:                4.061743
        Cartesian components [Ang]: [  2.104462,   2.771815,   2.094287]
      Electron size [Ang]:            6.447204
        Cartesian components [Ang]: [  2.346521,   5.330972,   2.764237]

  Excited state   6:
  ------------------
    
    
    Exciton analysis of the difference density matrix
      <r_h> [Ang]:                  [ 38.232157,  47.522195,  48.476499]
      <r_e> [Ang]:                  [ 39.022157,  43.623173,  49.880775]
      |<r_e - r_h>| [Ang]:            4.218823
      Hole size [Ang]:                4.375174
        Cartesian components [Ang]: [  2.388249,   3.086520,   1.977831]
      Electron size [Ang]:            6.730905
        Cartesian components [Ang]: [  2.590360,   5.566276,   2.758929]

  Excited state   7:
  ------------------
    
    
    Exciton analysis of the difference density matrix
      <r_h> [Ang]:                  [ 38.395279,  47.302268,  48.449828]
      <r_e> [Ang]:                  [ 40.518067,  37.937974,  52.354294]
      |<r_e - r_h>| [Ang]:           10.365379
      Hole size [Ang]:                4.566357
        Cartesian components [Ang]: [  2.392548,   3.402021,   1.885095]
      Electron size [Ang]:            4.996760
        Cartesian components [Ang]: [  2.505737,   3.663735,   2.294762]

  Excited state   8:
  ------------------
    
    
    Exciton analysis of the difference density matrix
      <r_h> [Ang]:                  [ 40.990535,  36.855869,  52.359953]
      <r_e> [Ang]:                  [ 40.878079,  36.893471,  52.459035]
      |<r_e - r_h>| [Ang]:            0.154523
      Hole size [Ang]:                3.757003
        Cartesian components [Ang]: [  2.054434,   2.471804,   1.945394]
      Electron size [Ang]:            3.885173
        Cartesian components [Ang]: [  1.965637,   2.340278,   2.398737]

  Excited state   9:
  ------------------
    
    
    Exciton analysis of the difference density matrix
      <r_h> [Ang]:                  [ 41.018604,  36.798040,  52.462875]
      <r_e> [Ang]:                  [ 40.969194,  36.788666,  52.529487]
      |<r_e - r_h>| [Ang]:            0.083464
      Hole size [Ang]:                3.797020
        Cartesian components [Ang]: [  2.343315,   2.206531,   2.014313]
      Electron size [Ang]:            3.802901
        Cartesian components [Ang]: [  2.329519,   2.259058,   1.982940]

  Excited state  10:
  ------------------
    
    
    Exciton analysis of the difference density matrix
      <r_h> [Ang]:                  [ 41.041936,  36.618918,  52.372408]
      <r_e> [Ang]:                  [ 41.022179,  36.604284,  52.372261]
      |<r_e - r_h>| [Ang]:            0.024587
      Hole size [Ang]:                3.776325
        Cartesian components [Ang]: [  2.334381,   2.196226,   1.996969]
      Electron size [Ang]:            3.839293
        Cartesian components [Ang]: [  2.067967,   2.334115,   2.239552]

  Excited state  11:
  ------------------
    
    
    Exciton analysis of the difference density matrix
      <r_h> [Ang]:                  [ 36.586759,  46.250117,  46.486312]
      <r_e> [Ang]:                  [ 37.398437,  46.182440,  48.317779]
      |<r_e - r_h>| [Ang]:            2.004414
      Hole size [Ang]:                2.318815
        Cartesian components [Ang]: [  1.268323,   1.418476,   1.325212]
      Electron size [Ang]:            3.922688
        Cartesian components [Ang]: [  1.889093,   2.953063,   1.760177]

  Excited state  12:
  ------------------
    
    
    Exciton analysis of the difference density matrix
      <r_h> [Ang]:                  [ 40.948468,  36.823500,  52.338597]
      <r_e> [Ang]:                  [ 40.873927,  36.794081,  52.681316]
      |<r_e - r_h>| [Ang]:            0.351963
      Hole size [Ang]:                3.764185
        Cartesian components [Ang]: [  2.187983,   2.131666,   2.199504]
      Electron size [Ang]:            3.843338
        Cartesian components [Ang]: [  2.261129,   2.262095,   2.131071]

  Excited state  13:
  ------------------
    
    
    Exciton analysis of the difference density matrix
      <r_h> [Ang]:                  [ 40.862141,  36.842835,  52.345422]
      <r_e> [Ang]:                  [ 40.832454,  36.958665,  52.505743]
      |<r_e - r_h>| [Ang]:            0.200003
      Hole size [Ang]:                3.808476
        Cartesian components [Ang]: [  2.191383,   2.222628,   2.182259]
      Electron size [Ang]:            3.898391
        Cartesian components [Ang]: [  1.968553,   2.376844,   2.381777]

  Excited state  14:
  ------------------
    
    
    Exciton analysis of the difference density matrix
      <r_h> [Ang]:                  [ 40.801321,  36.910945,  52.341366]
      <r_e> [Ang]:                  [ 40.918212,  36.862132,  52.704702]
      |<r_e - r_h>| [Ang]:            0.384785
      Hole size [Ang]:                3.811166
        Cartesian components [Ang]: [  2.054208,   2.298913,   2.240583]
      Electron size [Ang]:            3.810415
        Cartesian components [Ang]: [  2.338132,   2.214956,   2.036264]

  Excited state  15:
  ------------------
    
    
    Exciton analysis of the difference density matrix
      <r_h> [Ang]:                  [ 40.902182,  36.738774,  52.755664]
      <r_e> [Ang]:                  [ 41.114222,  36.744078,  53.134499]
      |<r_e - r_h>| [Ang]:            0.434171
      Hole size [Ang]:                3.909807
        Cartesian components [Ang]: [  2.311952,   2.178333,   2.279547]
      Electron size [Ang]:            3.818572
        Cartesian components [Ang]: [  2.149264,   2.218496,   2.245090]

  Excited state  16:
  ------------------
    
    
    Exciton analysis of the difference density matrix
      <r_h> [Ang]:                  [ 38.427133,  47.324118,  48.442239]
      <r_e> [Ang]:                  [ 41.318386,  36.735438,  53.147436]
      |<r_e - r_h>| [Ang]:           11.942293
      Hole size [Ang]:                4.567896
        Cartesian components [Ang]: [  2.395925,   3.407091,   1.875352]
      Electron size [Ang]:            3.794164
        Cartesian components [Ang]: [  2.232853,   2.185657,   2.152428]

  Excited state  17:
  ------------------
    
    
    Exciton analysis of the difference density matrix
      <r_h> [Ang]:                  [ 40.651917,  36.796235,  52.471122]
      <r_e> [Ang]:                  [ 41.018970,  36.625023,  53.141861]
      |<r_e - r_h>| [Ang]:            0.783538
      Hole size [Ang]:                3.896196
        Cartesian components [Ang]: [  2.053500,   2.289913,   2.391606]
      Electron size [Ang]:            3.847547
        Cartesian components [Ang]: [  2.071633,   2.282610,   2.302530]

  Excited state  18:
  ------------------
    
    
    Exciton analysis of the difference density matrix
      <r_h> [Ang]:                  [ 41.053061,  36.846652,  52.412310]
      <r_e> [Ang]:                  [ 41.308779,  36.883683,  53.343118]
      |<r_e - r_h>| [Ang]:            0.966006
      Hole size [Ang]:                3.768512
        Cartesian components [Ang]: [  2.011447,   2.337198,   2.166397]
      Electron size [Ang]:            3.737937
        Cartesian components [Ang]: [  2.187899,   2.089967,   2.194837]

  Excited state  19:
  ------------------
    
    
    Exciton analysis of the difference density matrix
      <r_h> [Ang]:                  [ 41.050265,  36.673179,  52.749691]
      <r_e> [Ang]:                  [ 41.406182,  36.436203,  53.489457]
      |<r_e - r_h>| [Ang]:            0.854452
      Hole size [Ang]:                3.856058
        Cartesian components [Ang]: [  2.256345,   2.440901,   1.954504]
      Electron size [Ang]:            3.664537
        Cartesian components [Ang]: [  2.145001,   2.093135,   2.108693]

  Excited state  20:
  ------------------
    
    
    Exciton analysis of the difference density matrix
      <r_h> [Ang]:                  [ 41.020414,  36.820670,  52.526671]
      <r_e> [Ang]:                  [ 41.355187,  36.471606,  53.374462]
      |<r_e - r_h>| [Ang]:            0.976048
      Hole size [Ang]:                4.260997
        Cartesian components [Ang]: [  2.616273,   2.343247,   2.412551]
      Electron size [Ang]:            3.712577
        Cartesian components [Ang]: [  2.127369,   2.190558,   2.111631]

  Excited state  21:
  ------------------
    
    
    Exciton analysis of the difference density matrix
      <r_h> [Ang]:                  [ 60.194583,  57.928886,  46.849318]
      <r_e> [Ang]:                  [ 40.775591,  37.229604,  52.320026]
      |<r_e - r_h>| [Ang]:           28.904778
      Hole size [Ang]:                6.749190
        Cartesian components [Ang]: [  5.890137,   2.942589,   1.482912]
      Electron size [Ang]:            4.286100
        Cartesian components [Ang]: [  1.993743,   2.851022,   2.503461]

  Excited state  22:
  ------------------
    
    
    Exciton analysis of the difference density matrix
      <r_h> [Ang]:                  [ 41.020204,  36.541225,  53.237947]
      <r_e> [Ang]:                  [ 40.990002,  36.709620,  52.608415]
      |<r_e - r_h>| [Ang]:            0.652365
      Hole size [Ang]:                3.923756
        Cartesian components [Ang]: [  2.250005,   1.977168,   2.534589]
      Electron size [Ang]:            3.832921
        Cartesian components [Ang]: [  2.238119,   2.329487,   2.062911]

  Excited state  23:
  ------------------
    
    
    Exciton analysis of the difference density matrix
      <r_h> [Ang]:                  [ 60.310039,  58.034401,  46.817979]
      <r_e> [Ang]:                  [ 40.956862,  36.895472,  52.571931]
      |<r_e - r_h>| [Ang]:           29.231964
      Hole size [Ang]:                6.468763
        Cartesian components [Ang]: [  5.753725,   2.589315,   1.426529]
      Electron size [Ang]:            3.884962
        Cartesian components [Ang]: [  2.364510,   2.347154,   1.998222]

  Excited state  24:
  ------------------
    
    
    Exciton analysis of the difference density matrix
      <r_h> [Ang]:                  [ 37.464693,  47.029321,  47.893968]
      <r_e> [Ang]:                  [ 37.956410,  47.843095,  48.276738]
      |<r_e - r_h>| [Ang]:            1.024952
      Hole size [Ang]:                2.949208
        Cartesian components [Ang]: [  1.497800,   1.857654,   1.733074]
      Electron size [Ang]:            4.488368
        Cartesian components [Ang]: [  1.950658,   3.141595,   2.543769]

  Excited state  25:
  ------------------
    
    
    Exciton analysis of the difference density matrix
      <r_h> [Ang]:                  [ 52.086035,  54.222805,  47.411571]
      <r_e> [Ang]:                  [ 50.963876,  53.586894,  48.149768]
      |<r_e - r_h>| [Ang]:            1.486122
      Hole size [Ang]:               12.923947
        Cartesian components [Ang]: [ 11.541440,   5.534966,   1.785415]
      Electron size [Ang]:           12.473175
        Cartesian components [Ang]: [ 10.869938,   5.718850,   2.172398]

  ----------------------------------------------------------------------------
                 Transition Density Matrix Analysis
  ----------------------------------------------------------------------------

  Excited state   1:
  ------------------
    
    Atomic CT numbers
      omega =     1.0000
    
    Exciton analysis of the transition density matrix
      <r_h> [Ang]:                        [ 37.326896,  46.784590,  47.169762]
      <r_e> [Ang]:                        [ 37.472850,  45.912435,  48.358511]
      |<r_e - r_h>| [Ang]:                  1.481581
      Hole size [Ang]:                      1.913363
        Cartesian components [Ang]:       [  0.983581,   1.238883,   1.076427]
      Electron size [Ang]:                  4.261079
        Cartesian components [Ang]:       [  1.971142,   3.268140,   1.894902]
      RMS electron-hole separation [Ang]:   4.803708
        Cartesian components [Ang]:       [  2.124056,   3.577531,   2.401098]
      Covariance(r_h, r_e) [Ang^2]:         0.468612
      Correlation coefficient:              0.057477
      Center-of-mass size [Ang]:            2.385109
        Cartesian components [Ang]:       [  1.141857,   1.760190,   1.134301]

  Excited state   2:
  ------------------
    
    Atomic CT numbers
      omega =     1.0000
    
    Exciton analysis of the transition density matrix
      <r_h> [Ang]:                        [ 38.303449,  47.512656,  48.361517]
      <r_e> [Ang]:                        [ 38.888579,  42.891933,  49.853906]
      |<r_e - r_h>| [Ang]:                  4.890877
      Hole size [Ang]:                      4.338377
        Cartesian components [Ang]:       [  2.374790,   3.089734,   1.906681]
      Electron size [Ang]:                  6.538512
        Cartesian components [Ang]:       [  2.503189,   5.366204,   2.773091]
      RMS electron-hole separation [Ang]:   8.862013
        Cartesian components [Ang]:       [  3.280867,   7.406572,   3.593586]
      Covariance(r_h, r_e) [Ang^2]:         3.479533
      Correlation coefficient:              0.122663
      Center-of-mass size [Ang]:            4.139225
        Cartesian components [Ang]:       [  1.829580,   3.285536,   1.729472]

  Excited state   3:
  ------------------
    
    Atomic CT numbers
      omega =     1.0000
    
    Exciton analysis of the transition density matrix
      <r_h> [Ang]:                        [ 40.446474,  36.955705,  51.922076]
      <r_e> [Ang]:                        [ 40.868966,  36.954670,  52.201880]
      |<r_e - r_h>| [Ang]:                  0.506746
      Hole size [Ang]:                      3.709397
        Cartesian components [Ang]:       [  1.994101,   2.312917,   2.105612]
      Electron size [Ang]:                  3.867931
        Cartesian components [Ang]:       [  1.929155,   2.352077,   2.388929]
      RMS electron-hole separation [Ang]:   5.154720
        Cartesian components [Ang]:       [  2.735779,   3.152224,   3.024919]
      Covariance(r_h, r_e) [Ang^2]:         1.203084
      Correlation coefficient:              0.083852
      Center-of-mass size [Ang]:            2.789565
        Cartesian components [Ang]:       [  1.422161,   1.719534,   1.674017]

  Excited state   4:
  ------------------
    
    Atomic CT numbers
      omega =     1.0000
    
    Exciton analysis of the transition density matrix
      <r_h> [Ang]:                        [ 40.514849,  36.946111,  52.046219]
      <r_e> [Ang]:                        [ 40.738286,  36.787026,  52.627303]
      |<r_e - r_h>| [Ang]:                  0.642566
      Hole size [Ang]:                      3.739932
        Cartesian components [Ang]:       [  2.002830,   2.335861,   2.125915]
      Electron size [Ang]:                  3.835871
        Cartesian components [Ang]:       [  2.355351,   2.270712,   2.002521]
      RMS electron-hole separation [Ang]:   5.153553
        Cartesian components [Ang]:       [  2.980767,   3.064775,   2.877723]
      Covariance(r_h, r_e) [Ang^2]:         1.277390
      Correlation coefficient:              0.089042
      Center-of-mass size [Ang]:            2.795343
        Cartesian components [Ang]:       [  1.603354,   1.721716,   1.509601]

  Excited state   5:
  ------------------
    
    Atomic CT numbers
      omega =     1.0000
    
    Exciton analysis of the transition density matrix
      <r_h> [Ang]:                        [ 37.962865,  47.606878,  48.422623]
      <r_e> [Ang]:                        [ 38.629786,  44.503445,  49.663927]
      |<r_e - r_h>| [Ang]:                  3.408360
      Hole size [Ang]:                      4.061743
        Cartesian components [Ang]:       [  2.104462,   2.771815,   2.094287]
      Electron size [Ang]:                  6.447204
        Cartesian components [Ang]:       [  2.346521,   5.330972,   2.764237]
      RMS electron-hole separation [Ang]:   8.097716
        Cartesian components [Ang]:       [  3.093487,   6.533276,   3.649609]
      Covariance(r_h, r_e) [Ang^2]:         2.054051
      Correlation coefficient:              0.078438
      Center-of-mass size [Ang]:            3.942470
        Cartesian components [Ang]:       [  1.638976,   3.128580,   1.751804]

  Excited state   6:
  ------------------
    
    Atomic CT numbers
      omega =     1.0000
    
    Exciton analysis of the transition density matrix
      <r_h> [Ang]:                        [ 38.232157,  47.522195,  48.476499]
      <r_e> [Ang]:                        [ 39.022157,  43.623173,  49.880775]
      |<r_e - r_h>| [Ang]:                  4.218823
      Hole size [Ang]:                      4.375174
        Cartesian components [Ang]:       [  2.388249,   3.086520,   1.977831]
      Electron size [Ang]:                  6.730905
        Cartesian components [Ang]:       [  2.590360,   5.566276,   2.758929]
      RMS electron-hole separation [Ang]:   8.762325
        Cartesian components [Ang]:       [  3.349223,   7.232399,   3.640528]
      Covariance(r_h, r_e) [Ang^2]:         2.733686
      Correlation coefficient:              0.092828
      Center-of-mass size [Ang]:            4.180748
        Cartesian components [Ang]:       [  1.886412,   3.313414,   1.715048]

  Excited state   7:
  ------------------
    
    Atomic CT numbers
      omega =     1.0000
    
    Exciton analysis of the transition density matrix
      <r_h> [Ang]:                        [ 38.395279,  47.302268,  48.449828]
      <r_e> [Ang]:                        [ 40.518067,  37.937974,  52.354294]
      |<r_e - r_h>| [Ang]:                 10.365379
      Hole size [Ang]:                      4.566357
        Cartesian components [Ang]:       [  2.392548,   3.402021,   1.885095]
      Electron size [Ang]:                  4.996760
        Cartesian components [Ang]:       [  2.505737,   3.663735,   2.294762]
      RMS electron-hole separation [Ang]:  12.319300
        Cartesian components [Ang]:       [  4.008066,  10.566984,   4.902999]
      Covariance(r_h, r_e) [Ang^2]:         0.747581
      Correlation coefficient:              0.032764
      Center-of-mass size [Ang]:            3.439273
        Cartesian components [Ang]:       [  1.764061,   2.550601,   1.486984]

  Excited state   8:
  ------------------
    
    Atomic CT numbers
      omega =     1.0000
    
    Exciton analysis of the transition density matrix
      <r_h> [Ang]:                        [ 40.990535,  36.855869,  52.359953]
      <r_e> [Ang]:                        [ 40.878079,  36.893471,  52.459035]
      |<r_e - r_h>| [Ang]:                  0.154523
      Hole size [Ang]:                      3.757003
        Cartesian components [Ang]:       [  2.054434,   2.471804,   1.945394]
      Electron size [Ang]:                  3.885173
        Cartesian components [Ang]:       [  1.965637,   2.340278,   2.398737]
      RMS electron-hole separation [Ang]:   5.125146
        Cartesian components [Ang]:       [  2.752512,   3.177571,   2.931526]
      Covariance(r_h, r_e) [Ang^2]:         1.483195
      Correlation coefficient:              0.101612
      Center-of-mass size [Ang]:            2.836196
        Cartesian components [Ang]:       [  1.466729,   1.808168,   1.619642]

  Excited state   9:
  ------------------
    
    Atomic CT numbers
      omega =     1.0000
    
    Exciton analysis of the transition density matrix
      <r_h> [Ang]:                        [ 41.018604,  36.798040,  52.462875]
      <r_e> [Ang]:                        [ 40.969194,  36.788666,  52.529487]
      |<r_e - r_h>| [Ang]:                  0.083464
      Hole size [Ang]:                      3.797020
        Cartesian components [Ang]:       [  2.343315,   2.206531,   2.014313]
      Electron size [Ang]:                  3.802901
        Cartesian components [Ang]:       [  2.329519,   2.259058,   1.982940]
      RMS electron-hole separation [Ang]:   5.135694
        Cartesian components [Ang]:       [  3.081670,   3.026749,   2.778031]
      Covariance(r_h, r_e) [Ang^2]:         1.255514
      Correlation coefficient:              0.086949
      Center-of-mass size [Ang]:            2.801359
        Cartesian components [Ang]:       [  1.756511,   1.641883,   1.437533]

  Excited state  10:
  ------------------
    
    Atomic CT numbers
      omega =     1.0000
    
    Exciton analysis of the transition density matrix
      <r_h> [Ang]:                        [ 41.041936,  36.618918,  52.372408]
      <r_e> [Ang]:                        [ 41.022179,  36.604284,  52.372261]
      |<r_e - r_h>| [Ang]:                  0.024587
      Hole size [Ang]:                      3.776325
        Cartesian components [Ang]:       [  2.334381,   2.196226,   1.996969]
      Electron size [Ang]:                  3.839293
        Cartesian components [Ang]:       [  2.067967,   2.334115,   2.239552]
      RMS electron-hole separation [Ang]:   5.105138
        Cartesian components [Ang]:       [  2.976958,   3.029393,   2.832478]
      Covariance(r_h, r_e) [Ang^2]:         1.469489
      Correlation coefficient:              0.101355
      Center-of-mass size [Ang]:            2.825764
        Cartesian components [Ang]:       [  1.627096,   1.685674,   1.579876]

  Excited state  11:
  ------------------
    
    Atomic CT numbers
      omega =     1.0000
    
    Exciton analysis of the transition density matrix
      <r_h> [Ang]:                        [ 36.586759,  46.250117,  46.486312]
      <r_e> [Ang]:                        [ 37.398437,  46.182440,  48.317779]
      |<r_e - r_h>| [Ang]:                  2.004414
      Hole size [Ang]:                      2.318815
        Cartesian components [Ang]:       [  1.268323,   1.418476,   1.325212]
      Electron size [Ang]:                  3.922688
        Cartesian components [Ang]:       [  1.889093,   2.953063,   1.760177]
      RMS electron-hole separation [Ang]:   4.821112
        Cartesian components [Ang]:       [  2.347918,   3.144404,   2.800557]
      Covariance(r_h, r_e) [Ang^2]:         0.769472
      Correlation coefficient:              0.084595
      Center-of-mass size [Ang]:            2.361320
        Cartesian components [Ang]:       [  1.172683,   1.701662,   1.142364]

  Excited state  12:
  ------------------
    
    Atomic CT numbers
      omega =     1.0000
    
    Exciton analysis of the transition density matrix
      <r_h> [Ang]:                        [ 40.948468,  36.823500,  52.338597]
      <r_e> [Ang]:                        [ 40.873927,  36.794081,  52.681316]
      |<r_e - r_h>| [Ang]:                  0.351963
      Hole size [Ang]:                      3.764185
        Cartesian components [Ang]:       [  2.187983,   2.131666,   2.199504]
      Electron size [Ang]:                  3.843338
        Cartesian components [Ang]:       [  2.261129,   2.262095,   2.131071]
      RMS electron-hole separation [Ang]:   5.192713
        Cartesian components [Ang]:       [  3.032951,   2.998699,   2.961971]
      Covariance(r_h, r_e) [Ang^2]:         1.049974
      Correlation coefficient:              0.072577
      Center-of-mass size [Ang]:            2.785690
        Cartesian components [Ang]:       [  1.628397,   1.607080,   1.589241]

  Excited state  13:
  ------------------
    
    Atomic CT numbers
      omega =     1.0000
    
    Exciton analysis of the transition density matrix
      <r_h> [Ang]:                        [ 40.862141,  36.842835,  52.345422]
      <r_e> [Ang]:                        [ 40.832454,  36.958665,  52.505743]
      |<r_e - r_h>| [Ang]:                  0.200003
      Hole size [Ang]:                      3.808476
        Cartesian components [Ang]:       [  2.191383,   2.222628,   2.182259]
      Electron size [Ang]:                  3.898391
        Cartesian components [Ang]:       [  1.968553,   2.376844,   2.381777]
      RMS electron-hole separation [Ang]:   5.244178
        Cartesian components [Ang]:       [  2.890902,   3.067116,   3.120399]
      Covariance(r_h, r_e) [Ang^2]:         1.120267
      Correlation coefficient:              0.075454
      Center-of-mass size [Ang]:            2.825884
        Cartesian components [Ang]:       [  1.499857,   1.716475,   1.670258]

  Excited state  14:
  ------------------
    
    Atomic CT numbers
      omega =     1.0000
    
    Exciton analysis of the transition density matrix
      <r_h> [Ang]:                        [ 40.801321,  36.910945,  52.341366]
      <r_e> [Ang]:                        [ 40.918212,  36.862132,  52.704702]
      |<r_e - r_h>| [Ang]:                  0.384785
      Hole size [Ang]:                      3.811166
        Cartesian components [Ang]:       [  2.054208,   2.298913,   2.240583]
      Electron size [Ang]:                  3.810415
        Cartesian components [Ang]:       [  2.338132,   2.214956,   2.036264]
      RMS electron-hole separation [Ang]:   5.208940
        Cartesian components [Ang]:       [  2.966423,   3.068946,   2.985794]
      Covariance(r_h, r_e) [Ang^2]:         1.029625
      Correlation coefficient:              0.070900
      Center-of-mass size [Ang]:            2.788526
        Cartesian components [Ang]:       [  1.626904,   1.655749,   1.545171]

  Excited state  15:
  ------------------
    
    Atomic CT numbers
      omega =     1.0000
    
    Exciton analysis of the transition density matrix
      <r_h> [Ang]:                        [ 40.902182,  36.738774,  52.755664]
      <r_e> [Ang]:                        [ 41.114222,  36.744078,  53.134499]
      |<r_e - r_h>| [Ang]:                  0.434171
      Hole size [Ang]:                      3.909807
        Cartesian components [Ang]:       [  2.311952,   2.178333,   2.279547]
      Electron size [Ang]:                  3.818572
        Cartesian components [Ang]:       [  2.149264,   2.218496,   2.245090]
      RMS electron-hole separation [Ang]:   5.228430
        Cartesian components [Ang]:       [  2.994128,   2.983950,   3.076966]
      Covariance(r_h, r_e) [Ang^2]:         1.360050
      Correlation coefficient:              0.091096
      Center-of-mass size [Ang]:            2.854303
        Cartesian components [Ang]:       [  1.658996,   1.614759,   1.669530]

  Excited state  16:
  ------------------
    
    Atomic CT numbers
      omega =     1.0000
    
    Exciton analysis of the transition density matrix
      <r_h> [Ang]:                        [ 38.427133,  47.324118,  48.442239]
      <r_e> [Ang]:                        [ 41.318386,  36.735438,  53.147436]
      |<r_e - r_h>| [Ang]:                 11.942293
      Hole size [Ang]:                      4.567896
        Cartesian components [Ang]:       [  2.395925,   3.407091,   1.875352]
      Electron size [Ang]:                  3.794164
        Cartesian components [Ang]:       [  2.232853,   2.185657,   2.152428]
      RMS electron-hole separation [Ang]:  13.336627
        Cartesian components [Ang]:       [  4.350205,  11.343277,   5.501946]
      Covariance(r_h, r_e) [Ang^2]:         0.007046
      Correlation coefficient:              0.000407
      Center-of-mass size [Ang]:            2.969656
        Cartesian components [Ang]:       [  1.649791,   2.013762,   1.428921]

  Excited state  17:
  ------------------
    
    Atomic CT numbers
      omega =     1.0000
    
    Exciton analysis of the transition density matrix
      <r_h> [Ang]:                        [ 40.651917,  36.796235,  52.471122]
      <r_e> [Ang]:                        [ 41.018970,  36.625023,  53.141861]
      |<r_e - r_h>| [Ang]:                  0.783538
      Hole size [Ang]:                      3.896196
        Cartesian components [Ang]:       [  2.053500,   2.289913,   2.391606]
      Electron size [Ang]:                  3.847547
        Cartesian components [Ang]:       [  2.071633,   2.282610,   2.302530]
      RMS electron-hole separation [Ang]:   5.295285
        Cartesian components [Ang]:       [  2.864141,   3.025938,   3.268094]
      Covariance(r_h, r_e) [Ang^2]:         1.278923
      Correlation coefficient:              0.085314
      Center-of-mass size [Ang]:            2.852271
        Cartesian components [Ang]:       [  1.495700,   1.716175,   1.718451]

  Excited state  18:
  ------------------
    
    Atomic CT numbers
      omega =     1.0000
    
    Exciton analysis of the transition density matrix
      <r_h> [Ang]:                        [ 41.053061,  36.846652,  52.412310]
      <r_e> [Ang]:                        [ 41.308779,  36.883683,  53.343118]
      |<r_e - r_h>| [Ang]:                  0.966006
      Hole size [Ang]:                      3.768512
        Cartesian components [Ang]:       [  2.011447,   2.337198,   2.166397]
      Electron size [Ang]:                  3.737937
        Cartesian components [Ang]:       [  2.187899,   2.089967,   2.194837]
      RMS electron-hole separation [Ang]:   5.110057
        Cartesian components [Ang]:       [  2.816294,   2.942736,   3.085689]
      Covariance(r_h, r_e) [Ang^2]:         1.497171
      Correlation coefficient:              0.106284
      Center-of-mass size [Ang]:            2.791424
        Cartesian components [Ang]:       [  1.565209,   1.658507,   1.609821]

  Excited state  19:
  ------------------
    
    Atomic CT numbers
      omega =     1.0000
    
    Exciton analysis of the transition density matrix
      <r_h> [Ang]:                        [ 41.050265,  36.673179,  52.749691]
      <r_e> [Ang]:                        [ 41.406182,  36.436203,  53.489457]
      |<r_e - r_h>| [Ang]:                  0.854452
      Hole size [Ang]:                      3.856058
        Cartesian components [Ang]:       [  2.256345,   2.440901,   1.954504]
      Electron size [Ang]:                  3.664537
        Cartesian components [Ang]:       [  2.145001,   2.093135,   2.108693]
      RMS electron-hole separation [Ang]:   5.149689
        Cartesian components [Ang]:       [  2.967721,   3.086676,   2.860832]
      Covariance(r_h, r_e) [Ang^2]:         1.254397
      Correlation coefficient:              0.088771
      Center-of-mass size [Ang]:            2.775194
        Cartesian components [Ang]:       [  1.635814,   1.673844,   1.491328]

  Excited state  20:
  ------------------
    
    Atomic CT numbers
      omega =     1.0000
    
    Exciton analysis of the transition density matrix
      <r_h> [Ang]:                        [ 41.020414,  36.820670,  52.526671]
      <r_e> [Ang]:                        [ 41.355187,  36.471606,  53.374462]
      |<r_e - r_h>| [Ang]:                  0.976048
      Hole size [Ang]:                      4.260997
        Cartesian components [Ang]:       [  2.616273,   2.343247,   2.412551]
      Electron size [Ang]:                  3.712577
        Cartesian components [Ang]:       [  2.127369,   2.190558,   2.111631]
      RMS electron-hole separation [Ang]:   5.562515
        Cartesian components [Ang]:       [  3.330433,   3.120695,   3.179788]
      Covariance(r_h, r_e) [Ang^2]:         0.975207
      Correlation coefficient:              0.061647
      Center-of-mass size [Ang]:            2.910745
        Cartesian components [Ang]:       [  1.714749,   1.655432,   1.670813]

  Excited state  21:
  ------------------
    
    Atomic CT numbers
      omega =     1.0000
    
    Exciton analysis of the transition density matrix
      <r_h> [Ang]:                        [ 60.194583,  57.928886,  46.849318]
      <r_e> [Ang]:                        [ 40.775591,  37.229604,  52.320026]
      |<r_e - r_h>| [Ang]:                 28.904778
      Hole size [Ang]:                      6.749190
        Cartesian components [Ang]:       [  5.890137,   2.942589,   1.482912]
      Electron size [Ang]:                  4.286100
        Cartesian components [Ang]:       [  1.993743,   2.851022,   2.503461]
      RMS electron-hole separation [Ang]:  29.991719
        Cartesian components [Ang]:       [ 20.388818,  21.104695,   6.196061]
      Covariance(r_h, r_e) [Ang^2]:        -0.047402
      Correlation coefficient:             -0.001639
      Center-of-mass size [Ang]:            3.994603
        Cartesian components [Ang]:       [  3.111703,   2.038779,   1.455177]

  Excited state  22:
  ------------------
    
    Atomic CT numbers
      omega =     1.0000
    
    Exciton analysis of the transition density matrix
      <r_h> [Ang]:                        [ 41.020204,  36.541225,  53.237947]
      <r_e> [Ang]:                        [ 40.990002,  36.709620,  52.608415]
      |<r_e - r_h>| [Ang]:                  0.652365
      Hole size [Ang]:                      3.923756
        Cartesian components [Ang]:       [  2.250005,   1.977168,   2.534589]
      Electron size [Ang]:                  3.832921
        Cartesian components [Ang]:       [  2.238119,   2.329487,   2.062911]
      RMS electron-hole separation [Ang]:   5.375916
        Cartesian components [Ang]:       [  3.105852,   2.927718,   3.268428]
      Covariance(r_h, r_e) [Ang^2]:         0.806126
      Correlation coefficient:              0.053601
      Center-of-mass size [Ang]:            2.815111
        Cartesian components [Ang]:       [  1.620030,   1.591244,   1.663819]

  Excited state  23:
  ------------------
    
    Atomic CT numbers
      omega =     1.0000
    
    Exciton analysis of the transition density matrix
      <r_h> [Ang]:                        [ 60.310039,  58.034401,  46.817979]
      <r_e> [Ang]:                        [ 40.956862,  36.895472,  52.571931]
      |<r_e - r_h>| [Ang]:                 29.231964
      Hole size [Ang]:                      6.468763
        Cartesian components [Ang]:       [  5.753725,   2.589315,   1.426529]
      Electron size [Ang]:                  3.884962
        Cartesian components [Ang]:       [  2.364510,   2.347154,   1.998222]
      RMS electron-hole separation [Ang]:  30.194109
        Cartesian components [Ang]:       [ 20.331261,  21.428679,   6.255861]
      Covariance(r_h, r_e) [Ang^2]:        -0.119345
      Correlation coefficient:             -0.004749
      Center-of-mass size [Ang]:            3.764941
        Cartesian components [Ang]:       [  3.105551,   1.738779,   1.227592]

  Excited state  24:
  ------------------
    
    Atomic CT numbers
      omega =     1.0000
    
    Exciton analysis of the transition density matrix
      <r_h> [Ang]:                        [ 37.464693,  47.029321,  47.893968]
      <r_e> [Ang]:                        [ 37.956410,  47.843095,  48.276738]
      |<r_e - r_h>| [Ang]:                  1.024952
      Hole size [Ang]:                      2.949208
        Cartesian components [Ang]:       [  1.497800,   1.857654,   1.733074]
      Electron size [Ang]:                  4.488368
        Cartesian components [Ang]:       [  1.950658,   3.141595,   2.543769]
      RMS electron-hole separation [Ang]:   5.305824
        Cartesian components [Ang]:       [  2.347657,   3.769465,   2.903688]
      Covariance(r_h, r_e) [Ang^2]:         0.871017
      Correlation coefficient:              0.065801
      Center-of-mass size [Ang]:            2.765199
        Cartesian components [Ang]:       [  1.306449,   1.809306,   1.632768]

  Excited state  25:
  ------------------
    
    Atomic CT numbers
      omega =     1.0000
    
    Exciton analysis of the transition density matrix
      <r_h> [Ang]:                        [ 52.086035,  54.222805,  47.411571]
      <r_e> [Ang]:                        [ 50.963876,  53.586894,  48.149768]
      |<r_e - r_h>| [Ang]:                  1.486122
      Hole size [Ang]:                     12.923947
        Cartesian components [Ang]:       [ 11.541440,   5.534966,   1.785415]
      Electron size [Ang]:                 12.473175
        Cartesian components [Ang]:       [ 10.869938,   5.718850,   2.172398]
      RMS electron-hole separation [Ang]:   6.882161
        Cartesian components [Ang]:       [  5.335361,   3.656379,   2.351375]
      Covariance(r_h, r_e) [Ang^2]:       138.726454
      Correlation coefficient:              0.860572
      Center-of-mass size [Ang]:           12.248075
        Cartesian components [Ang]:       [ 10.903141,   5.331920,   1.645449]


  ----------------------------------------------------------------------------
                              SA-NTO Decomposition
  ----------------------------------------------------------------------------

  Excited state   1:
  ------------------
    Decomposition into state-averaged NTOs
      H- 7 -> L+ 3: -0.6437 ( 82.9%)
      H- 0 -> L+ 3: -0.1793 (  6.4%)
      H- 0 -> L+ 0:  0.1392 (  3.9%)
      H- 7 -> L+ 0:  0.1098 (  2.4%)
      H- 0 -> L+ 1:  0.0725 (  1.1%)
                     omega = 100.0%

  Excited state   2:
  ------------------
    Decomposition into state-averaged NTOs
      H- 0 -> L+ 0:  0.4345 ( 37.8%)
      H- 0 -> L+ 3: -0.3318 ( 22.0%)
      H- 0 -> L+ 1:  0.2382 ( 11.3%)
      H- 7 -> L+ 3:  0.2204 (  9.7%)
      H- 9 -> L+ 4:  0.1645 (  5.4%)
      H- 9 -> L+ 3:  0.1249 (  3.1%)
      H- 8 -> L+ 3:  0.1081 (  2.3%)
      H- 0 -> L+ 4:  0.0905 (  1.6%)
      H- 7 -> L+ 0: -0.0731 (  1.1%)
                     omega = 100.0%

  Excited state   3:
  ------------------
    Decomposition into state-averaged NTOs
      H- 1 -> L+ 1: -0.5105 ( 52.1%)
      H- 1 -> L+ 0: -0.4370 ( 38.2%)
      H- 2 -> L+ 0: -0.1451 (  4.2%)
                     omega = 100.0%

  Excited state   4:
  ------------------
    Decomposition into state-averaged NTOs
      H- 1 -> L+ 0: -0.5149 ( 53.0%)
      H- 1 -> L+ 1:  0.4381 ( 38.4%)
      H- 2 -> L+ 1:  0.1322 (  3.5%)
                     omega = 100.0%

  Excited state   5:
  ------------------
    Decomposition into state-averaged NTOs
      H- 9 -> L+ 3:  0.4037 ( 32.6%)
      H- 0 -> L+ 4:  0.3538 ( 25.0%)
      H- 0 -> L+ 0: -0.2684 ( 14.4%)
      H- 0 -> L+ 1: -0.2382 ( 11.3%)
      H- 0 -> L+ 3: -0.1655 (  5.5%)
      H- 8 -> L+ 3:  0.1352 (  3.7%)
      H- 9 -> L+ 4:  0.0839 (  1.4%)
      H- 9 -> L+ 0: -0.0778 (  1.2%)
                     omega = 100.0%

  Excited state   6:
  ------------------
    Decomposition into state-averaged NTOs
      H- 0 -> L+ 3:  0.4270 ( 36.5%)
      H- 0 -> L+ 1:  0.3666 ( 26.9%)
      H- 9 -> L+ 3:  0.2603 ( 13.6%)
      H- 0 -> L+ 4:  0.2396 ( 11.5%)
      H- 9 -> L+ 4: -0.1371 (  3.8%)
      H- 0 -> L+ 0:  0.0912 (  1.7%)
                     omega = 100.0%

  Excited state   7:
  ------------------
    Decomposition into state-averaged NTOs
      H- 0 -> L+ 1:  0.4819 ( 46.5%)
      H- 0 -> L+ 0: -0.4415 ( 39.0%)
      H- 0 -> L+ 3: -0.2134 (  9.1%)
                     omega = 100.0%

  Excited state   8:
  ------------------
    Decomposition into state-averaged NTOs
      H- 2 -> L+ 0:  0.5305 ( 56.3%)
      H- 2 -> L+ 1:  0.3045 ( 18.5%)
      H- 4 -> L+ 0:  0.2361 ( 11.2%)
      H- 1 -> L+ 1: -0.1586 (  5.0%)
      H- 4 -> L+ 1:  0.1029 (  2.1%)
      H- 3 -> L+ 0:  0.0975 (  1.9%)
      H- 2 -> L+ 3:  0.0761 (  1.2%)
                     omega = 100.0%

  Excited state   9:
  ------------------
    Decomposition into state-averaged NTOs
      H- 2 -> L+ 1: -0.5134 ( 52.7%)
      H- 2 -> L+ 0:  0.2852 ( 16.3%)
      H- 3 -> L+ 1: -0.2612 ( 13.6%)
      H- 4 -> L+ 1:  0.2149 (  9.2%)
      H- 3 -> L+ 0:  0.1175 (  2.8%)
      H- 1 -> L+ 0: -0.0954 (  1.8%)
                     omega = 100.0%

  Excited state  10:
  ------------------
    Decomposition into state-averaged NTOs
      H- 3 -> L+ 1:  0.5906 ( 69.8%)
      H- 2 -> L+ 1: -0.2629 ( 13.8%)
      H- 1 -> L+ 2: -0.1611 (  5.2%)
      H- 2 -> L+ 2: -0.1072 (  2.3%)
      H- 3 -> L+ 0:  0.0974 (  1.9%)
                     omega = 100.0%

  Excited state  11:
  ------------------
    Decomposition into state-averaged NTOs
      H- 8 -> L+ 3: -0.6614 ( 87.5%)
      H- 8 -> L+ 0:  0.1268 (  3.2%)
      H- 0 -> L+ 4:  0.0957 (  1.8%)
      H- 9 -> L+ 3:  0.0848 (  1.4%)
      H- 0 -> L+ 3: -0.0791 (  1.3%)
      H- 7 -> L+ 3:  0.0762 (  1.2%)
                     omega = 100.0%

[...]

 Total job time:  12568.07s(wall), 168813.86s(cpu) 
 Fri Jun 21 03:08:47 2024

======= MOLDEN-FORMATTED INPUT FILE FOLLOWS =======
[Molden Format]
[Atoms] (Angs)
  C      1    6     40.03542328     34.07747650     50.62305832
  C      2    6     39.33750153     39.24565887     54.41223526
  C      3    6     37.78224182     37.75056076     53.75490952
  C      4    6     37.78740311     35.54536057     52.88954544
  C      5    6     41.75084686     39.47233200     54.52494431
  C      6    6     40.55373764     39.84507751     53.97770309
  C      7    6     40.50603104     37.87956238     55.81369400
  C      8    6     38.69609070     35.92325592     55.06357956
  C      9    6     41.02073288     33.31506348     52.45847702
  C     10    6     41.76267242     38.46281433     55.49415207
  C     11    6     39.06705475     33.98578644     51.58659744
  C     12    6     44.05273056     37.99654007     52.30115128
  C     13    6     42.74968338     39.52995300     53.55015182
  C     14    6     43.96837997     35.80602264     51.42007828
  C     15    6     43.07757187     34.28261566     53.08613968
  C     16    6     43.36693192     34.60298538     51.71572495
  C     17    6     43.72457886     37.49896622     54.42908096
  C     18    6     40.75470734     36.49835587     55.99897385
  C     19    6     39.87621689     35.48761749     55.59810257
  C     20    6     41.60490799     34.06745529     54.76492691
  C     21    6     38.98292923     38.71338272     49.75773239
  C     22    6     40.15454102     39.56853104     50.36030960
  C     23    6     38.17045212     38.47359085     51.04859543
  C     24    6     38.67604446     39.26813126     52.07322311
  C     25    6     42.41957855     35.27597809     49.84572220
  C     26    6     41.49324417     39.14722443     50.19460678
  C     27    6     38.17661285     35.03931427     51.67079544
  C     28    6     43.45918655     38.49877548     51.14821243
  C     29    6     42.13678360     39.95972443     52.38497543
  C     30    6     43.36219406     36.22722626     50.28903580
  C     31    6     37.66305542     37.21572876     51.35324478
  C     32    6     44.06630325     36.33255768     53.76621628
  C     33    6     43.56576157     35.14395905     54.09919357
  C     34    6     40.28405762     34.32435226     55.01182175
  C     35    6     42.06738281     36.31003189     55.67795944
  C     36    6     39.46428299     37.41359329     49.03645706
  C     37    6     40.96926498     37.10572052     49.10977554
  C     38    6     39.02239227     36.04546738     49.66830063
  C     39    6     41.18814850     35.70775604     49.28049088
  C     40    6     41.95845032     33.59429169     53.46261215
  C     41    6     39.78782272     39.95668030     51.67953873
  C     42    6     38.16611862     36.07628632     50.77794266
  C     43    6     39.98074341     35.12830734     49.67337418
  C     44    6     37.47759628     36.88923264     52.71952438
  C     45    6     42.43134308     34.23780060     50.77228165
  C     46    6     41.88761139     38.02587891     49.57029343
  C     47    6     42.49321365     39.42333221     51.20346451
  C     48    6     38.45532608     38.92343521     53.41828537
  C     49    6     40.76572418     40.19042587     52.63469315
  C     50    6     42.53916168     35.10297012     55.12183762
  C     51    6     43.07819748     37.62501526     50.16296005
  C     52    6     41.22753143     33.64247894     51.14430618
  C     53    6     39.31019592     38.19858932     55.26387405
  C     54    6     38.40370941     37.25876236     54.88428116
  C     55    6     38.32035828     35.05776596     54.05852890
  C     56    6     39.66483688     33.52842331     52.76191330
  C     57    6     43.74524689     38.54375458     53.53744888
  C     58    6     44.25888824     36.65840149     52.45281601
  C     59    6     39.32715988     34.02342987     54.02800369
  C     60    6     42.73516464     37.46341705     55.40768814
  C     61    6     38.06702805     39.35037994     48.68034744
  N     62    7     38.04104233     38.69755173     47.56750870
  C     63    6     38.89369965     37.50092697     47.58279800
  H     64    1     39.76797867     37.57107162     46.93059158
  H     65    1     38.25526428     36.62056351     47.47314072
  C     66    6     36.89878845     43.54693604     48.44537735
  C     67    6     37.06329346     42.91847229     49.71615982
  H     68    1     36.87632751     43.38723755     50.67889786
  C     69    6     37.45203018     41.55899811     49.70392990
  H     70    1     37.35005188     41.00393295     50.63294601
  C     71    6     37.68609238     40.83082199     48.57065201
  C     72    6     37.16943741     42.84180450     47.25648880
  H     73    1     37.23537064     43.31881332     46.28197098
  C     74    6     37.57352448     41.46322250     47.30572891
  H     75    1     37.87754440     40.82816315     46.47757339
  C     76    6     36.44705582     44.98897934     48.45491409
  C     77    6     36.16180420     45.67343903     49.70856094
  C     78    6     35.27354813     45.41484070     50.75371933
  H     79    1     34.57232285     44.59514236     50.87034225
  C     80    6     35.41279602     46.46661758     51.70744705
  H     81    1     34.77893829     46.65425873     52.56782150
  C     82    6     36.50772476     47.21390152     51.26733780
  N     83    7     36.87845612     46.72869492     50.07006454
  H     84    1     37.67413712     47.13292313     49.59507370
  C     85    6     36.98184586     48.44858170     51.78332138
  H     86    1     36.54607391     48.76514816     52.72979355
  C     87    6     37.95463943     49.27117920     51.28208542
  C     88    6     38.35543060     50.44987869     51.94501114
  H     89    1     38.01856995     50.79148865     52.91817093
  C     90    6     39.18561935     51.05294037     51.08909988
  H     91    1     39.80324554     51.90899658     51.33996964
  C     92    6     39.37937546     50.12907028     49.93753433
  N     93    7     38.48263168     49.13467789     50.02600479
  C     94    6     40.17868805     50.39270020     48.76268387
  C     95    6     39.64580154     50.27010727     47.48015213
  C     96    6     39.66844559     51.11004639     46.32606125
  H     97    1     40.28321457     51.97649765     46.10573959
  C     98    6     38.72100067     50.62192917     45.44837570
  H     99    1     38.51445007     51.08549881     44.48937607
  C    100    6     38.16280746     49.40251541     45.89148331
  N    101    7     38.69128036     49.31769180     47.12242508
  H    102    1     38.50345230     48.49061203     47.67267990
  C    103    6     37.38438034     48.54201508     45.29747391
  H    104    1     37.17817307     48.78105164     44.25523758
  C    105    6     36.88829422     47.28388977     45.80862808
  C    106    6     35.94205856     46.36751175     45.28039169
  H    107    1     35.46015549     46.60828400     44.33857346
  C    108    6     35.66968918     45.37218857     46.18452072
  H    109    1     34.87158585     44.64551163     46.07404709
  C    110    6     36.52386475     45.62120819     47.21135330
  N    111    7     37.22494507     46.71147919     46.99198532
  C    112    6     44.36986923     51.21619415     49.51636124
  C    113    6     43.90370178     51.25489807     48.21174240
  H    114    1     44.59870148     51.55831528     47.43296432
  C    115    6     42.53765106     50.96190643     48.01423264
  H    116    1     42.11303329     50.93264771     47.01402664
  C    117    6     41.62492752     50.58996201     49.05727005
  C    118    6     43.56096649     50.82131195     50.56925583
  H    119    1     44.05266190     50.83947372     51.53852463
  C    120    6     42.20302200     50.49611664     50.38250351
  H    121    1     41.69416809     50.16132355     51.28281021
  N    122    7     45.71440506     51.57721329     49.82648849
  H    123    1     46.24413681     50.85521317     50.29143906
  C    124    6     46.36732483     52.72185135     49.43257523
  O    125    8     45.72726822     53.50487518     48.71463394
  C    126    6     47.76681519     52.98352051     49.91049576
  C    127    6     48.63332367     53.67185593     49.12913132
  H    128    1     48.19963837     53.94063950     48.16931534
  C    129    6     49.93336487     53.92221069     49.47035599
  C    130    6     50.28663635     53.61315918     50.82182693
  H    131    1     51.28923035     53.89702988     51.13132858
  C    132    6     49.51980591     52.85982895     51.64129257
  H    133    1     49.81925201     52.62210083     52.65883255
  C    134    6     48.22178650     52.60742950     51.23998642
  H    135    1     47.58567810     51.94142914     51.81737900
  C    136    6     50.90901947     54.49493027     48.55067825
  H    137    1     50.39117432     54.64427185     47.60438919
  C    138    6     52.22270203     54.80745697     48.73169327
  H    139    1     52.59568024     54.61666107     49.73688126
  C    140    6     53.21183014     55.24926758     47.76457596
  C    141    6     52.74805450     55.12276459     46.34776688
  H    142    1     51.90812683     54.43427277     46.23390579
  H    143    1     53.48087311     54.59730148     45.73186874
  H    144    1     52.61479187     56.14244080     45.98039627
  C    145    6     54.51605225     55.46578979     48.02102280
  H    146    1     54.78494263     55.47763824     49.07623672
  C    147    6     55.51875305     55.71233368     47.00439072
  H    148    1     55.24200439     55.84230804     45.95919418
  C    149    6     56.78703308     56.00322723     47.27045822
  H    150    1     57.08679199     55.93419647     48.31511307
  C    151    6     57.92199707     56.39620209     46.52116013
  C    152    6     58.24413300     55.59984589     45.27607346
  H    153    1     57.48162079     54.82105255     45.20898056
  H    154    1     58.25471497     56.28501892     44.42583847
  H    155    1     59.15628052     55.02613068     45.45301437
  C    156    6     58.82433319     57.28881836     47.00053787
  H    157    1     58.45450592     57.89414215     47.82682419
  C    158    6     60.03949738     57.71328735     46.27318954
  H    159    1     60.19554138     57.48721313     45.21940994
  C    160    6     60.98150635     58.49263000     46.90291214
  H    161    1     60.86483002     58.78790283     47.94460678
  C    162    6     62.32663727     58.96875000     46.39689255
  H    163    1     62.43782806     58.71282196     45.34424973
  C    164    6     63.21371460     59.80886078     46.95501328
  C    165    6     62.86375427     60.51073456     48.28982925
  H    166    1     61.87113190     60.95633698     48.19713211
  H    167    1     62.64998627     59.84564209     49.12913132
  H    168    1     63.63346100     61.15901184     48.71379471
  C    169    6     64.38842010     60.27434540     46.20400620
  H    170    1     64.50337219     59.91643524     45.18194199
  C    171    6     65.55711365     60.80388641     46.65052414
  H    172    1     65.69017029     60.79550934     47.73132706
  C    173    6     66.80420685     61.04448700     45.84710312
  H    174    1     66.70864105     60.85149384     44.77960587
  C    175    6     68.01206970     61.44644928     46.29046249
  C    176    6     68.46637726     61.78742218     47.63762283
  H    177    1     67.59011841     61.59102631     48.25896835
  H    178    1     69.20626068     60.99104309     47.74164963
  H    179    1     68.87412262     62.79976654     47.67439651
  C    180    6     69.10844421     61.69015503     45.32086563
  H    181    1     69.97143555     62.24258423     45.68964005
  C    182    6     69.15345764     61.22742462     44.06552505
  H    183    1     68.35615540     60.60469055     43.66250229
  C    184    6     70.29295349     61.53494263     43.14235306
  C    185    6     71.58451843     61.39344025     43.38678360
  C    186    6     72.17848969     60.78335571     44.68707657
  H    187    1     72.90773773     59.98116302     44.55612564
  H    188    1     72.75205994     61.50016785     45.27840042
  H    189    1     71.40128326     60.30355072     45.28557205
  C    190    6     72.65976715     61.73040009     42.44926071
  H    191    1     73.50138855     61.03507996     42.42352676
  H    192    1     72.93914032     62.69541931     42.87723160
  C    193    6     72.20869446     61.83429718     41.02488327
  H    194    1     72.14167023     60.89094543     40.47893143
  H    195    1     72.96687317     62.29833984     40.39061356
  C    196    6     70.93247986     62.65050507     40.92876816
  H    197    1     71.09238434     63.65969849     41.31404495
  H    198    1     70.63317108     62.77408600     39.88589096
  C    199    6     69.82238770     61.97444153     41.70143509
  C    200    6     68.68982697     62.93394470     41.81045151
  H    201    1     68.92113495     63.86015320     42.34063339
  H    202    1     68.38965607     63.23284912     40.80395889
  H    203    1     67.76383209     62.57640076     42.26560593
  C    204    6     69.29171753     60.79640961     40.82605362
  H    205    1     69.03987885     61.12541199     39.81571579
  H    206    1     70.06657410     60.03034973     40.89825821
  H    207    1     68.39423370     60.34364319     41.25264359

======= END OF MOLDEN-FORMATTED INPUT FILE =======


        *************************************************************
        *                                                           *
        *  Thank you very much for using Q-Chem.  Have a nice day.  *
        *                                                           *
        *************************************************************


0 sent ACK to 0 
now end server 0 ... 
cleanup process ... done
remove work dirs /tmp/qchem328299.0 -- /tmp/qchem328299.0
rm -rf /tmp/qchem328299.0
rm -rf /tmp/qchem328299
