You are running Q-Chem version: 6.0.2

#
# job setting
#
local host:  compute45
current dir: /gpfsnyu/xspace/projects/PCT-example/DBP-C70/results/DBP-C70_conf11/QC
input file:  DBP-C70_conf11.inp
output file: 
nprocs     : 0
nthreads   : 40
#
# qchem installation setting
#
QC:          /gpfsnyu/xspace/sungroup/software/qchem6cpu
QCAUX:       /gpfsnyu/xspace/sungroup/software/qchem6cpu/qcaux
QCPROG:      /gpfsnyu/xspace/sungroup/software/qchem6cpu/exe/qcprog.exe_s
QCPROG_S:    /gpfsnyu/xspace/sungroup/software/qchem6cpu/exe/qcprog.exe_s
PARALLEL:    -DSERIAL
QCMPI:       seq
#
# qchem directory setting
#
qcrun:       qchem237346
QCSCRATCH:   /tmp/xs13_9697722
QCLOCALSCR:  
QCTMPDIR:    /tmp/xs13_9697722
QCFILEPREF:  /tmp/xs13_9697722/qchem237346
QCSAVEDIR:   
workdirs:    /tmp/xs13_9697722/qchem237346
workdir0:    /tmp/xs13_9697722/qchem237346
partmpdirs =  
#
# parallel setting
#
QCRSH:           ssh
QCMPI:           seq
QCMPIRUN:        
QCMACHINEFILE:   /tmp/xs13_9697722/qchem237346/hostfile

#
# env setting
#
exported envs:   QC QCAUX QCSCRATCH QCRUNNAME QCFILEPREF QCPROG QCPROG_S GUIFILE

Running Job 1 of 1 DBP-C70_conf11.inp
qchem DBP-C70_conf11.inp_237346.0 /tmp/xs13_9697722/qchem237346/ 0
/gpfsnyu/xspace/sungroup/software/qchem6cpu/exe/qcprog.exe_s DBP-C70_conf11.inp_237346.0 /tmp/xs13_9697722/qchem237346/
                  Welcome to Q-Chem
     A Quantum Leap Into The Future Of Chemistry


 Q-Chem 6.0, Q-Chem, Inc., Pleasanton, CA (2022)

 License issued to: SRG Xiang Sun, NYU Shanghai

 E. Epifanovsky,  A. T. B. Gilbert,  Xintian Feng,  Joonho Lee,  Yuezhi Mao,  
 N. Mardirossian,  P. Pokhilko,  A. White,  M. Wormit,  M. P. Coons,  
 A. L. Dempwolff,  Zhengting Gan,  D. Hait,  P. R. Horn,  L. D. Jacobson,  
 I. Kaliman,  J. Kussmann,  A. W. Lange,  Ka Un Lao,  D. S. Levine,  Jie Liu,  
 S. C. McKenzie,  A. F. Morrison,  K. Nanda,  F. Plasser,  D. R. Rehn,  
 M. L. Vidal,  Zhi-Qiang You,  Ying Zhu,  B. Alam,  B. Albrecht,  
 A. Aldossary,  E. Alguire,  J. H. Andersen,  V. Athavale,  D. Barton,  
 K. Begam,  A. Behn,  N. Bellonzi,  Y. A. Bernard,  E. J. Berquist,  
 H. Burton,  A. Carreras,  K. Carter-Fenk,  Romit Chakraborty,  
 Chandrima Chakravarty,  Junhan Chen,  A. D. Chien,  K. D. Closser,  
 V. Cofer-Shabica,  L. Cunha,  S. Dasgupta,  Jia Deng,  M. de Wergifosse,  
 M. Diedenhofen,  Hainam Do,  S. Ehlert,  Po-Tung Fang,  S. Fatehi,  
 Qingguo Feng,  T. Friedhoff,  B. Ganoe,  J. Gayvert,  Qinghui Ge,  
 G. Gidofalvi,  M. Goldey,  J. Gomes,  C. Gonzalez-Espinoza,  S. Gulania,  
 A. Gunina,  J. A. Gyamfi,  M. W. D. Hanson-Heine,  P. H. P. Harbach,  
 A. W. Hauser,  M. F. Herbst,  M. Hernandez Vera,  M. Hodecker,  
 Z. C. Holden,  S. Houck,  Xunkun Huang,  Kerwin Hui,  B. C. Huynh,  
 K. Ikeda,  M. Ivanov,  Hyunjun Ji,  Zuxin Jin,  Hanjie Jiang,  B. Kaduk,  
 S. Kaehler,  R. Kang,  K. Khistyaev,  Jaehoon Kim,  Yongbin Kim,  
 P. Klunzinger,  Z. Koczor-Benda,  Joong Hoon Koh,  D. Kosenkov,  
 Saikiran Kotaru,  L. Koulias,  T. Kowalczyk,  C. M. Krauter,  K. Kue,  
 A. Kunitsa,  T. Kus,  A. Landau,  K. V. Lawler,  D. Lefrancois,  S. Lehtola,  
 Rain Li,  Shaozhi Li,  Yi-Pei Li,  Jiashu Liang,  M. Liebenthal,  
 Hung-Hsuan Lin,  You-Sheng Lin,  Fenglai Liu,  Kuan-Yu Liu,  
 M. Loipersberger,  A. Luenser,  C. Malbon,  A. Manjanath,  P. Manohar,  
 E. Mansoor,  S. F. Manzer,  Shan-Ping Mao,  A. V. Marenich,  T. Markovich,  
 S. Mason,  F. Matz,  S. A. Maurer,  P. F. McLaughlin,  M. F. S. J. Menger,  
 J.-M. Mewes,  S. A. Mewes,  P. Morgante,  Mohammad Mostafanejad,  
 J. W. Mullinax,  K. J. Oosterbaan,  G. Paran,  V. Parravicini,  
 Alexander C. Paul,  Suranjan K. Paul,  F. Pavosevic,  Zheng Pei,  S. Prager,  
 E. I. Proynov,  E. Ramos,  B. Rana,  A. E. Rask,  A. Rettig,  R. M. Richard,  
 F. Rob,  E. Rossomme,  T. Scheele,  M. Scheurer,  M. Schneider,  
 P. E. Schneider,  N. Sergueev,  S. M. Sharada,  Hengyuan Shen,  
 W. Skomorowski,  D. W. Small,  C. J. Stein,  Yingli Su,  Yu-Chuan Su,  
 E. J. Sundstrom,  Zhen Tao,  J. Thirman,  Hung-Yi Tsai,  T. Tsuchimochi,  
 N. M. Tubman,  C. Utku,  S. P. Veccham,  O. Vydrov,  J. Wenzel,  
 Jonathan Wong,  J. Witte,  A. Yamada,  Chou-Hsun Yang,  Kun Yao,  
 S. Yeganeh,  S. R. Yost,  A. Zech,  F. Zeller,  Igor Ying Zhang,  
 Xing Zhang,  Yu Zhang,  D. Zuev,  A. Aspuru-Guzik,  A. T. Bell,  
 N. A. Besley,  K. B. Bravaya,  B. R. Brooks,  D. Casanova,  Jeng-Da Chai,  
 Hsing-Ta Chen,  S. Coriani,  C. J. Cramer,  A. E. DePrince, III,  
 R. A. DiStasio Jr.,  A. Dreuw,  B. D. Dunietz,  T. R. Furlani,  
 W. A. Goddard III,  S. Grimme,  S. Hammes-Schiffer,  T. Head-Gordon,  
 W. J. Hehre,  Chao-Ping Hsu,  T.-C. Jagau,  Yousung Jung,  A. Klamt,  
 Jing Kong,  D. S. Lambrecht,  Xiangyuan Li,  WanZhen Liang,  N. J. Mayhall,  
 C. W. McCurdy,  J. B. Neaton,  T. Neudecker,  C. Ochsenfeld,  
 J. A. Parkhill,  R. Peverati,  V. A. Rassolov,  Haisheng Ren,  Yihan Shao,  
 L. V. Slipchenko,  R. P. Steele,  J. E. Subotnik,  A. J. W. Thom,  
 A. Tkatchenko,  D. G. Truhlar,  T. Van Voorhis,  Fan Wang,  
 T. A. Wesolowski,  K. B. Whaley,  H. L. Woodcock III,  P. M. Zimmerman,  
 S. Faraji,  P. M. W. Gill,  M. Head-Gordon,  J. M. Herbert,  A. I. Krylov

 Contributors to earlier versions of Q-Chem not listed above: 
 R. D. Adamson,  B. Austin,  R. Baer,  J. Baker,  G. J. O. Beran,  
 K. Brandhorst,  S. T. Brown,  E. F. C. Byrd,  Arup K. Chakraborty,  
 G. K. L. Chan,  Chun-Min Chang,  Yunqing Chen,  C.-L. Cheng,  
 Siu Hung Chien,  D. M. Chipman,  D. L. Crittenden,  H. Dachsel,  
 R. J. Doerksen,  A. D. Dutoi,  R. G. Edgar,  J. Fosso-Tande,  
 L. Fusti-Molnar,  D. Ghosh,  A. Ghysels,  A. Golubeva-Zadorozhnaya,  
 J. Gonthier,  M. S. Gordon,  S. R. Gwaltney,  G. Hawkins,  J. E. Herr,  
 A. Heyden,  S. Hirata,  E. G. Hohenstein,  G. Kedziora,  F. J. Keil,  
 C. Kelley,  Jihan Kim,  R. A. King,  R. Z. Khaliullin,  P. P. Korambath,  
 W. Kurlancheek,  A. Laurent,  A. M. Lee,  M. S. Lee,  S. V. Levchenko,  
 Ching Yeh Lin,  D. Liotard,  E. Livshits,  R. C. Lochan,  I. Lotan,  
 L. A. Martinez-Martinez,  P. E. Maslen,  N. Nair,  D. P. O'Neill,  
 D. Neuhauser,  E. Neuscamman,  C. M. Oana,  R. Olivares-Amaya,  R. Olson,  
 T. M. Perrine,  B. Peters,  P. A. Pieniazek,  A. Prociuk,  Y. M. Rhee,  
 J. Ritchie,  M. A. Rohrdanz,  E. Rosta,  N. J. Russ,  H. F. Schaefer III,  
 M. W. Schmidt,  N. E. Schultz,  S. Sharma,  N. Shenvi,  C. D. Sherrill,  
 A. C. Simmonett,  A. Sodt,  T. Stein,  D. Stuck,  K. S. Thanthiriwatte,  
 V. Vanovschi,  L. Vogt,  Tao Wang,  A. Warshel,  M. A. Watson,  
 C. F. Williams,  Q. Wu,  X. Xu,  Jun Yang,  W. Zhang,  Yan Zhao

   Please cite Q-Chem as follows:
  "Software for the frontiers of quantum chemistry:
   An overview of developments in the Q-Chem 5 package"
   J. Chem. Phys. 155, 084801 (2021)
   https://doi.org/10.1063/5.0055522 (open access)

 Q-Chem 6.0.2 for Intel X86 EM64T Linux

 Parts of Q-Chem use Armadillo 9.900.5 (Nocturnal Misbehaviour).
 http://arma.sourceforge.net/

 Q-Chem begins on Thu Jun 20 23:49:53 2024  

 Host: 
0

     Scratch files written to /tmp/xs13_9697722/qchem237346//
 Dec722 |scratch|qcdevops|jenkins|workspace|build_RNUM 9119   
 Processing $rem in /gpfsnyu/xspace/sungroup/software/qchem6cpu/config/preferences:
 Processing $rem in /gpfsnyu/home/xs13/.qchemrc:

 Checking the input file for inconsistencies... 	...done.

 Q-Chem warning in module forms1/BasisType.C, line 2987:

 You are not using the predefined 5D/6D in this basis set.


--------------------------------------------------------------
User input:
--------------------------------------------------------------
$molecule
read                  DBP-C70_conf11.txt
$end

$rem
JOBTYPE               sp        ! single point charge calculation
METHOD                wB97XD
BASIS                 SV
SYM_IGNORE            TRUE      !
ideriv                0         !
separate_jk           TRUE      !
derscreen             FALSE     !
! OMEGA                 114514       ! geometric parameter tuned for geometry
purecart              2111      !
MAX_SCF_CYCLES        5000      !
scf_convergence       8         ! for SP, default is 5 ; for opt/freq, default is 8
CIS_DYNAMIC_MEM       True      ! using dynamic memory for large TDDFT calculation
MEM_STATIC	      160000     ! static memory for storing data.
MEM_TOTAL             180000    !
max_cis_cycles        500000    !
CIS_N_ROOTS           25        ! number of excited states
CIS_SINGLETS          true      ! compute singlet excited states, default is true
CIS_TRIPLETS          false     ! compute triplet excited states, default is true
MAX_CIS_SUBSPACE      15000
RPA                   false     ! false: TDA-DFT, true: TDA- and TDDFT , 2: TDDFT
sts_fcd               true      ! compute electronic couplings with FCD method
sts_donor             71-170   ! donor atom index
sts_acceptor          1-70   ! acceptor atom index
sts_mom               true      ! calculate the transition moment
POP_MULLIKEN          -1        ! get Mulliken Charge for ground and excited states
GUI                   2         ! for producing wavefunction .fchk file
state_analysis        true      ! state analysis module
MOLDEN_FORMAT         true      ! generate molden formatted NTO
$end



--------------------------------------------------------------
 ----------------------------------------------------------------
             Standard Nuclear Orientation (Angstroms)
    I     Atom           X                Y                Z
 ----------------------------------------------------------------
    1      C      42.9625210000    25.4041310000    38.9978070000
    2      C      43.5695110000    24.2315980000    38.6269380000
    3      C      42.5992850000    23.2669070000    38.7938000000
    4      C      41.4103660000    23.8587070000    39.2239110000
    5      C      41.6467090000    25.2262730000    39.3359150000
    6      C      44.5002250000    24.1326310000    37.6233600000
    7      C      44.4736370000    23.1163010000    36.6820980000
    8      C      43.4608310000    22.1764700000    36.8131260000
    9      C      42.5703620000    22.1945930000    37.8548970000
   10      C      41.3964540000    21.7360020000    37.3327140000
   11      C      40.1685100000    22.3271660000    37.7374880000
   12      C      40.1935080000    23.4061910000    38.6496240000
   13      C      39.2538570000    24.3697320000    38.3151400000
   14      C      39.5391540000    25.7126080000    38.4223290000
   15      C      40.7371600000    26.1200520000    38.8936120000
   16      C      41.0041080000    27.2988530000    38.3206670000
   17      C      42.4207730000    27.5157410000    37.9570580000
   18      C      43.3458790000    26.5710030000    38.3547740000
   19      C      44.2382010000    26.5351120000    37.3179780000
   20      C      44.8863980000    25.2985250000    36.9585040000
   21      C      42.6840710000    28.1195660000    36.7129140000
   22      C      43.8230060000    27.3919730000    36.2818070000
   23      C      44.7262610000    23.7254490000    35.4689670000
   24      C      44.9842450000    25.0260280000    35.5989000000
   25      C      39.9640050000    27.6092010000    37.4440650000
   26      C      38.9960020000    26.5715640000    37.5491520000
   27      C      38.5666960000    23.8992580000    37.2013210000
   28      C      39.1394580000    22.6770710000    36.8047490000
   29      C      41.5317920000    21.5190110000    35.9948080000
   30      C      42.8750570000    21.7288680000    35.6705820000
   31      C      43.2232700000    22.2234780000    34.4033620000
   32      C      44.2715840000    23.2162440000    34.2819210000
   33      C      44.6489640000    25.9520630000    34.5662570000
   34      C      44.0581090000    27.1885070000    34.9727250000
   35      C      41.6102410000    28.4239080000    35.8448220000
   36      C      40.2690730000    28.2213460000    36.2391970000
   37      C      38.0284500000    24.7910210000    36.2145540000
   38      C      38.2443080000    26.1589580000    36.4041980000
   39      C      40.5161630000    21.6665940000    35.0352670000
   40      C      39.2311060000    22.2129440000    35.4594080000
   41      C      42.2475810000    22.1360450000    33.4177090000
   42      C      40.9278910000    21.8245620000    33.6822550000
   43      C      44.3242230000    25.4512210000    33.3113520000
   44      C      44.1583940000    24.0538650000    33.1654050000
   45      C      43.1775210000    27.8287580000    34.1315650000
   46      C      41.9898570000    28.4892220000    34.5094150000
   47      C      38.4986230000    23.0197660000    34.5677680000
   48      C      37.9426380000    24.2886770000    34.9103700000
   49      C      38.3010220000    27.0239370000    35.2303050000
   50      C      39.3353880000    28.0331730000    35.1652220000
   51      C      39.7194750000    28.1003930000    33.8481830000
   52      C      41.0384290000    28.3432830000    33.5083730000
   53      C      42.9378090000    27.3279290000    32.8556290000
   54      C      43.4873890000    26.1312920000    32.5403290000
   55      C      43.2432900000    23.9602810000    32.1398930000
   56      C      42.2707480000    22.9797210000    32.2892070000
   57      C      40.1112710000    22.5040300000    32.7642820000
   58      C      38.9553340000    23.0895980000    33.2456400000
   59      C      38.1425670000    26.4506400000    33.9684910000
   60      C      37.9720310000    25.1144660000    33.7831990000
   61      C      40.9610180000    23.2167260000    31.8826140000
   62      C      38.5492250000    24.3791350000    32.7690890000
   63      C      38.9547920000    27.1482300000    33.0944330000
   64      C      41.6842770000    27.6675110000    32.4661290000
   65      C      42.8301810000    25.2486860000    31.7481920000
   66      C      40.9288790000    26.7531600000    31.7264940000
   67      C      41.5142670000    25.5089630000    31.3269650000
   68      C      40.5711170000    24.5192640000    31.4018020000
   69      C      39.5953290000    26.4506030000    32.0356830000
   70      C      39.3488620000    25.0796090000    31.8526610000
   71      C      43.1333010000    31.7722320000    42.1698610000
   72      C      43.1975020000    30.9837720000    41.0469780000
   73      C      42.2327230000    31.1402440000    40.0289990000
   74      C      41.3808170000    32.1911960000    40.1087040000
   75      C      40.4761240000    32.3208200000    39.0367090000
   76      C      40.6135410000    33.3655510000    38.0903850000
   77      C      41.7302210000    34.2358700000    38.1600650000
   78      C      41.9292560000    35.1719820000    37.1445080000
   79      C      41.0919190000    35.2953680000    36.0723920000
   80      C      40.0616460000    34.3781050000    35.9618420000
   81      C      39.7372440000    33.4084890000    36.9343030000
   82      C      38.6801070000    32.5188030000    36.6705890000
   83      C      37.8726430000    32.5419350000    35.5231700000
   84      C      37.1320040000    33.7265550000    35.0706710000
   85      C      36.3825990000    33.6442530000    33.9449840000
   86      C      36.1319050000    32.4707720000    33.3397330000
   87      C      36.7217250000    31.3297770000    33.7997400000
   88      C      37.6730920000    31.3674350000    34.7976840000
   89      C      38.5886760000    31.5347560000    37.7043610000
   90      C      37.6696240000    30.4247020000    37.7897340000
   91      C      36.5108300000    30.0968590000    37.1694150000
   92      C      35.8617900000    28.9226930000    37.5083010000
   93      C      36.2982640000    28.0731700000    38.5891040000
   94      C      35.8545270000    26.7536790000    38.8513340000
   95      C      34.8981170000    26.1030120000    38.0416760000
   96      C      34.6507300000    24.7207110000    38.1745150000
   97      C      35.3469470000    24.0213570000    39.1687200000
   98      C      35.4770660000    22.6561510000    39.4659350000
   99      C      34.7790340000    21.5661810000    38.9390180000
  100      C      33.7380640000    21.7598970000    38.0947800000
  101      C      33.6411290000    21.1949650000    36.8035770000
  102      C      32.4478150000    21.1899280000    36.1154100000
  103      C      31.2767410000    21.7663920000    36.6843220000
  104      C      31.4109570000    22.3731120000    37.9174840000
  105      C      32.6387440000    22.3981900000    38.5975720000
  106      C      35.3200040000    20.2947850000    39.2984390000
  107      C      34.8372000000    19.1362150000    38.7062490000
  108      C      35.3126980000    17.8556440000    39.1429900000
  109      C      36.3179320000    17.6892950000    40.1105580000
  110      C      36.8615950000    18.8537830000    40.6211740000
  111      C      36.3994670000    20.1216790000    40.2313310000
  112      C      36.9665450000    21.2814270000    40.7632060000
  113      C      38.1096120000    21.2346290000    41.6193080000
  114      C      39.3078380000    20.7727170000    41.0524440000
  115      C      40.5051310000    20.7160950000    41.8130840000
  116      C      40.3904650000    21.0979980000    43.1612550000
  117      C      39.1627660000    21.4476410000    43.7538680000
  118      C      38.0020480000    21.5900800000    42.9351230000
  119      C      36.4890140000    22.5175800000    40.3835750000
  120      C      36.9560170000    23.7838520000    40.7344590000
  121      C      37.9237820000    24.3380810000    41.5343930000
  122      C      38.1725620000    25.7324180000    41.5517960000
  123      C      37.5333290000    26.5973740000    40.6381800000
  124      C      37.9517060000    27.9151270000    40.4522630000
  125      C      39.1097640000    28.5157240000    41.0178720000
  126      C      39.6117710000    29.7349930000    40.6525990000
  127      C      39.0328330000    30.3102150000    39.5864720000
  128      C      39.4825900000    31.3902280000    38.8243750000
  129      C      38.0306400000    29.7423860000    38.8897480000
  130      C      37.4102290000    28.5581490000    39.2847180000
  131      C      36.5578080000    25.9816780000    39.8102650000
  132      C      36.2873120000    24.6575570000    39.9083860000
  133      C      41.5009800000    33.1796880000    41.0520290000
  134      C      42.2790600000    32.8769990000    42.1585080000
  135      H      43.6038440000    31.5418660000    43.1227760000
  136      H      43.8908500000    30.1477090000    40.9994700000
  137      H      41.9696240000    30.4051020000    39.2731210000
  138      H      42.5572740000    34.2133670000    38.8650740000
  139      H      42.6474530000    35.9750060000    37.2884140000
  140      H      41.0615200000    36.1774790000    35.4379160000
  141      H      39.4793550000    34.4799160000    35.0496600000
  142      H      37.2697300000    34.6099780000    35.6887630000
  143      H      35.7822150000    34.5167850000    33.6992420000
  144      H      35.4924770000    32.3455920000    32.4692880000
  145      H      36.4761510000    30.4243430000    33.2519990000
  146      H      38.2012710000    30.4548910000    35.0623020000
  147      H      36.0564800000    30.7686540000    36.4468150000
  148      H      34.9072340000    28.7268620000    37.0266080000
  149      H      34.4144360000    26.7023180000    37.2747310000
  150      H      34.0581970000    24.2177960000    37.4146390000
  151      H      34.5526010000    20.7641960000    36.3971670000
  152      H      32.4639970000    20.7621020000    35.1167110000
  153      H      30.3554170000    21.7516880000    36.1067310000
  154      H      30.5495910000    22.8386140000    38.3907780000
  155      H      32.7155990000    22.9842400000    39.5094340000
  156      H      34.1326450000    19.0973720000    37.8786620000
  157      H      34.9791950000    16.9689430000    38.6111450000
  158      H      36.4631920000    16.7460920000    40.6298600000
  159      H      37.6369860000    18.7760540000    41.3786390000
  160      H      39.3792720000    20.5885220000    39.9829520000
  161      H      41.4708790000    20.4309520000    41.4025460000
  162      H      41.2575720000    21.2698440000    43.7944490000
  163      H      39.1986080000    21.6261860000    44.8255580000
  164      H      37.0423130000    21.8516100000    43.3743480000
  165      H      38.5209880000    23.6846770000    42.1646270000
  166      H      38.8688660000    26.1185130000    42.2925340000
  167      H      39.6543460000    27.9639510000    41.7797050000
  168      H      40.3212970000    30.2710490000    41.2780840000
  169      H      40.7988850000    34.0069160000    40.9766620000
  170      H      42.2097020000    33.5428470000    43.0153390000
 ----------------------------------------------------------------
 Nuclear Repulsion Energy =       30363.92175923 hartrees
 There are      420 alpha and      420 beta electrons
 Requested basis set is SV
 There are 742 shells and 1278 basis functions

 Q-Chem warning in module libmdc/get_mega.C, line 167:

 Allowed MEM_STATIC has been capped at MEM_STATIC=8191.
 Reduce the value of MEM_STATIC to silence this warning.


 Total QAlloc Memory Limit 180000 MB
 Mega-Array Size      8007 MB
 MEM_STATIC part      8191 MB

 A cutoff of  1.0D-12 yielded 120786 shell pairs
 There are    418786 function pairs
 Smallest overlap matrix eigenvalue = 2.03E-05

 Scale SEOQF with 1.000000e-03/1.000000e-03/1.000000e-03

 Standard Electronic Orientation quadrupole field applied
 Nucleus-field energy     =    -0.0000003623 hartrees
 ================ Generating on-the-fly SAD Guess ================
 Attempting to make child job directory: /tmp/xs13_9697722/qchem237346//Frg1/
 Attempting to make child job directory: /tmp/xs13_9697722/qchem237346//Frg2/
 Creating input file /tmp/xs13_9697722/qchem237346/Frg1.input
 using default PutDataFrgm: nothing
 calling putenv with: QCSCRATCH=/tmp/xs13_9697722/qchem237346/ 
 Spawning Job For Fragment 0
 Done Job For Fragment 0
 calling putenv with: QCSCRATCH=/tmp/xs13_9697722 
 calling putenv with: QCTHREADS=40 
 Creating input file /tmp/xs13_9697722/qchem237346/Frg2.input
 using default PutDataFrgm: nothing
 calling putenv with: QCSCRATCH=/tmp/xs13_9697722/qchem237346/ 
 Spawning Job For Fragment 1
 Done Job For Fragment 1
 calling putenv with: QCSCRATCH=/tmp/xs13_9697722 
 calling putenv with: QCTHREADS=40 
 Time for running child jobs:  CPU 0.03 s  wall 1.12 s
 ============= Method Specific SAD Guess Constructed =============
 Guess from on-the-fly superposition of atomic densities
 Warning: Energy on first SCF cycle will be non-variational

 -----------------------------------------------------------------------
  General SCF calculation program by
  Eric Jon Sundstrom, Paul Horn, Yuezhi Mao, Dmitri Zuev, Alec White,
  David Stuck, Shaama M.S., Shane Yost, Joonho Lee, David Small,
  Daniel Levine, Susi Lehtola, Hugh Burton, Evgeny Epifanovsky,
  Bang C. Huynh
 -----------------------------------------------------------------------
 Exchange:     0.2220 Hartree-Fock + 1.0000 wB97X-D + LR-HF
 Correlation:  1.0000 wB97X-D
 Using SG-2 standard quadrature grid
 Dispersion:   Grimme D
 using 40 threads for integral computing
 -------------------------------------------------------
 OpenMP Integral computing Module                
 Release: version 1.0, May 2013, Q-Chem Inc. Pittsburgh 
 -------------------------------------------------------
 A restricted SCF calculation will be
 performed using DIIS
 SCF converges when DIIS error is below 1.0e-08
 ---------------------------------------
  Cycle       Energy         DIIS error
 ---------------------------------------
    1   -5192.9784736466      3.33e-02  
    2   -5124.3439470648      1.27e-03  
    3   -5124.7295832848      6.77e-04  
    4   -5124.8132605469      3.56e-04  
    5   -5124.8402277816      1.46e-04  
    6   -5124.8456227400      4.40e-05  
    7   -5124.8461932536      1.35e-05  
    8   -5124.8463169022      8.78e-06  
    9   -5124.8463703099      3.71e-06  
   10   -5124.8463852625      2.15e-06  
   11   -5124.8463889741      8.21e-07  
   12   -5124.8463895748      4.22e-07  
   13   -5124.8463897363      1.89e-07  
   14   -5124.8463897652      8.60e-08  
   15   -5124.8463897692      4.94e-08  
   16   -5124.8463897704      1.91e-08  
   17   -5124.8463897776      1.04e-08  
   18   -5124.8463897738      4.73e-09  Convergence criterion met
 ---------------------------------------
 SCF time:   CPU 47781.98s  wall 2352.00s 
 SCF   energy in the final basis set =    -5124.8463897738
 Total energy in the final basis set =    -5124.8463897738
 
 MAX_CIS_SUBSPACE fits in available memory
 Direct TDDFT/TDA calculation will be performed
 Exchange:     0.2220 Hartree-Fock + 1.0000 wB97X-D + LR-HF
 Correlation:  1.0000 wB97X-D
 Using SG-2 standard quadrature grid
 Dispersion:   Grimme D
 Singlet excitation energies requested
 CIS energy converged when residual is below 10e- 6
 ---------------------------------------------------
 Iter    Rts Conv    Rts Left    Ttl Dev     Max Dev
 ---------------------------------------------------
   1         0          25      0.001502    0.000182
   2         0          25      0.000532    0.000038
   3         0          25      0.000520    0.000089
   4         0          25      0.000379    0.000062
   5         3          22      0.000346    0.000050
   6         5          20      0.000247    0.000039
   7         5          20      0.000188    0.000033
   8         8          17      0.000106    0.000016
   9        14          11      0.000071    0.000014
  10        16           9      0.000045    0.000012
  11        17           8      0.000026    0.000006
  12        20           5      0.000015    0.000003
  13        24           1      0.000009    0.000001
  14        25           0      0.000008    0.000001    Roots Converged
 ---------------------------------------------------
 
 ---------------------------------------------------
         TDDFT/TDA Excitation Energies              
 ---------------------------------------------------

 Excited state   1: excitation energy (eV) =    1.5055
 Total energy for state  1:                 -5124.79106236 au
    Multiplicity: Singlet
    Trans. Mom.:  0.2187 X  -0.2602 Y  -0.1884 Z
    Strength   :     0.0055710498
    D(  420) --> V(    1) amplitude =  0.8549
    D(  420) --> V(    2) amplitude =  0.4341

 Excited state   2: excitation energy (eV) =    1.8242
 Total energy for state  2:                 -5124.77935019 au
    Multiplicity: Singlet
    Trans. Mom.: -0.0361 X   0.2134 Y  -0.0059 Z
    Strength   :     0.0020951612
    D(  420) --> V(    1) amplitude = -0.2490
    D(  420) --> V(    2) amplitude =  0.7350
    D(  420) --> V(    3) amplitude =  0.5773

 Excited state   3: excitation energy (eV) =    2.0964
 Total energy for state  3:                 -5124.76934862 au
    Multiplicity: Singlet
    Trans. Mom.:  0.2452 X   0.8015 Y  -0.1739 Z
    Strength   :     0.0376345407
    D(  420) --> V(    1) amplitude =  0.4169
    D(  420) --> V(    2) amplitude = -0.4537
    D(  420) --> V(    3) amplitude =  0.7428

 Excited state   4: excitation energy (eV) =    2.1635
 Total energy for state  4:                 -5124.76688166 au
    Multiplicity: Singlet
    Trans. Mom.: -0.0425 X  -0.5724 Y   0.0113 Z
    Strength   :     0.0174677250
    D(  415) --> V(    2) amplitude = -0.2512
    D(  416) --> V(    3) amplitude =  0.2735
    D(  417) --> V(    1) amplitude =  0.7978

 Excited state   5: excitation energy (eV) =    2.2364
 Total energy for state  5:                 -5124.76420412 au
    Multiplicity: Singlet
    Trans. Mom.: -1.5292 X  -4.1249 Y   0.9174 Z
    Strength   :     1.1064815790
    D(  420) --> V(    4) amplitude = -0.5144
    D(  420) --> V(    5) amplitude =  0.7514

 Excited state   6: excitation energy (eV) =    2.3902
 Total energy for state  6:                 -5124.75855062 au
    Multiplicity: Singlet
    Trans. Mom.: -0.0429 X   0.9276 Y   0.0087 Z
    Strength   :     0.0504960789
    D(  416) --> V(    2) amplitude = -0.2981
    D(  417) --> V(    2) amplitude =  0.8197

 Excited state   7: excitation energy (eV) =    2.4683
 Total energy for state  7:                 -5124.75568148 au
    Multiplicity: Singlet
    Trans. Mom.: -0.7011 X  -0.3822 Y   0.1954 Z
    Strength   :     0.0408645824
    D(  411) --> V(    2) amplitude = -0.2221
    D(  415) --> V(    2) amplitude = -0.2980
    D(  416) --> V(    1) amplitude =  0.7060

 Excited state   8: excitation energy (eV) =    2.4743
 Total energy for state  8:                 -5124.75546267 au
    Multiplicity: Singlet
    Trans. Mom.: -0.1333 X   0.5395 Y   0.1379 Z
    Strength   :     0.0198712650
    D(  410) --> V(    2) amplitude =  0.2588
    D(  411) --> V(    1) amplitude = -0.2179
    D(  416) --> V(    2) amplitude =  0.5995
    D(  417) --> V(    2) amplitude =  0.2370
    D(  417) --> V(    3) amplitude =  0.4060

 Excited state   9: excitation energy (eV) =    2.5299
 Total energy for state  9:                 -5124.75341812 au
    Multiplicity: Singlet
    Trans. Mom.: -0.2034 X  -1.0202 Y  -0.0456 Z
    Strength   :     0.0672042373
    D(  411) --> V(    1) amplitude = -0.2198
    D(  411) --> V(    3) amplitude =  0.2347
    D(  414) --> V(    1) amplitude =  0.2399
    D(  415) --> V(    1) amplitude =  0.4775
    D(  416) --> V(    1) amplitude = -0.2406
    D(  416) --> V(    2) amplitude =  0.2494
    D(  416) --> V(    3) amplitude =  0.2687
    D(  417) --> V(    1) amplitude = -0.3233

 Excited state  10: excitation energy (eV) =    2.5508
 Total energy for state 10:                 -5124.75265137 au
    Multiplicity: Singlet
    Trans. Mom.: -0.2772 X  -0.6806 Y   0.0458 Z
    Strength   :     0.0338814370
    D(  416) --> V(    2) amplitude = -0.3876
    D(  417) --> V(    3) amplitude =  0.7702

 Excited state  11: excitation energy (eV) =    2.5981
 Total energy for state 11:                 -5124.75091231 au
    Multiplicity: Singlet
    Trans. Mom.: -0.0215 X  -0.3485 Y  -0.0905 Z
    Strength   :     0.0082831504
    D(  420) --> V(    4) amplitude =  0.7398
    D(  420) --> V(    5) amplitude =  0.5004

 Excited state  12: excitation energy (eV) =    2.6219
 Total energy for state 12:                 -5124.75003782 au
    Multiplicity: Singlet
    Trans. Mom.: -0.3506 X  -0.0031 Y   0.1922 Z
    Strength   :     0.0102678990
    D(  414) --> V(    2) amplitude =  0.2960
    D(  415) --> V(    1) amplitude =  0.3952
    D(  415) --> V(    2) amplitude =  0.6358
    D(  416) --> V(    1) amplitude =  0.3443

 Excited state  13: excitation energy (eV) =    2.6559
 Total energy for state 13:                 -5124.74878546 au
    Multiplicity: Singlet
    Trans. Mom.: -0.5891 X   0.2188 Y   0.2883 Z
    Strength   :     0.0311024778
    D(  408) --> V(    3) amplitude =  0.2282
    D(  410) --> V(    3) amplitude = -0.2177
    D(  415) --> V(    1) amplitude = -0.3298
    D(  415) --> V(    3) amplitude =  0.4003
    D(  416) --> V(    3) amplitude =  0.6124

 Excited state  14: excitation energy (eV) =    2.6810
 Total energy for state 14:                 -5124.74786595 au
    Multiplicity: Singlet
    Trans. Mom.: -0.3049 X  -0.3905 Y   0.1525 Z
    Strength   :     0.0176500994
    D(  411) --> V(    1) amplitude =  0.2464
    D(  415) --> V(    3) amplitude =  0.2978
    D(  416) --> V(    2) amplitude =  0.2352
    D(  417) --> V(    3) amplitude =  0.2455
    D(  418) --> V(    1) amplitude = -0.2218
    D(  419) --> V(    1) amplitude =  0.4573
    D(  419) --> V(    2) amplitude =  0.2967

 Excited state  15: excitation energy (eV) =    2.7063
 Total energy for state 15:                 -5124.74693646 au
    Multiplicity: Singlet
    Trans. Mom.:  0.1379 X   0.1105 Y   0.0026 Z
    Strength   :     0.0020705960
    D(  412) --> V(    1) amplitude = -0.2844
    D(  413) --> V(    1) amplitude = -0.2184
    D(  414) --> V(    3) amplitude =  0.2990
    D(  415) --> V(    3) amplitude =  0.3864
    D(  416) --> V(    2) amplitude =  0.2229
    D(  416) --> V(    3) amplitude = -0.3427
    D(  419) --> V(    1) amplitude = -0.3843

 Excited state  16: excitation energy (eV) =    2.7264
 Total energy for state 16:                 -5124.74619673 au
    Multiplicity: Singlet
    Trans. Mom.:  0.1459 X   0.1433 Y  -0.4516 Z
    Strength   :     0.0164135943
    D(  412) --> V(    1) amplitude =  0.5139
    D(  413) --> V(    1) amplitude =  0.3724
    D(  415) --> V(    3) amplitude =  0.3129
    D(  417) --> V(    4) amplitude = -0.3360

 Excited state  17: excitation energy (eV) =    2.7815
 Total energy for state 17:                 -5124.74417029 au
    Multiplicity: Singlet
    Trans. Mom.: -0.0168 X   0.3036 Y  -0.0574 Z
    Strength   :     0.0065271734
    D(  411) --> V(    1) amplitude =  0.3158
    D(  411) --> V(    2) amplitude =  0.2648
    D(  412) --> V(    1) amplitude =  0.2658
    D(  412) --> V(    2) amplitude =  0.3376
    D(  415) --> V(    3) amplitude = -0.2687
    D(  418) --> V(    1) amplitude =  0.2725
    D(  419) --> V(    1) amplitude = -0.2667

 Excited state  18: excitation energy (eV) =    2.7934
 Total energy for state 18:                 -5124.74373460 au
    Multiplicity: Singlet
    Trans. Mom.:  0.0387 X  -0.0166 Y  -0.0299 Z
    Strength   :     0.0001823631
    D(  410) --> V(    2) amplitude = -0.2660
    D(  412) --> V(    1) amplitude =  0.2923
    D(  412) --> V(    2) amplitude = -0.5959
    D(  413) --> V(    2) amplitude = -0.2221
    D(  416) --> V(    2) amplitude =  0.2323

 Excited state  19: excitation energy (eV) =    2.8102
 Total energy for state 19:                 -5124.74311517 au
    Multiplicity: Singlet
    Trans. Mom.:  0.1623 X   0.2232 Y  -0.0618 Z
    Strength   :     0.0055042699
    D(  418) --> V(    1) amplitude =  0.6700
    D(  418) --> V(    2) amplitude =  0.3346
    D(  419) --> V(    1) amplitude =  0.4299

 Excited state  20: excitation energy (eV) =    2.8459
 Total energy for state 20:                 -5124.74180423 au
    Multiplicity: Singlet
    Trans. Mom.:  0.0762 X   0.4171 Y  -0.0469 Z
    Strength   :     0.0126865813
    D(  408) --> V(    2) amplitude = -0.2656
    D(  411) --> V(    2) amplitude =  0.2584
    D(  411) --> V(    3) amplitude =  0.2598
    D(  412) --> V(    3) amplitude =  0.2121
    D(  413) --> V(    2) amplitude = -0.2525
    D(  416) --> V(    3) amplitude = -0.2448

 Excited state  21: excitation energy (eV) =    2.8993
 Total energy for state 21:                 -5124.73984157 au
    Multiplicity: Singlet
    Trans. Mom.: -0.1715 X  -0.1148 Y   0.0105 Z
    Strength   :     0.0030339093
    D(  408) --> V(    1) amplitude = -0.2524
    D(  418) --> V(    4) amplitude = -0.3822
    D(  418) --> V(    5) amplitude =  0.6252

 Excited state  22: excitation energy (eV) =    2.9023
 Total energy for state 22:                 -5124.73973304 au
    Multiplicity: Singlet
    Trans. Mom.: -0.0938 X   0.1654 Y  -0.0115 Z
    Strength   :     0.0025801923
    D(  408) --> V(    1) amplitude = -0.3641
    D(  409) --> V(    3) amplitude = -0.2382
    D(  410) --> V(    1) amplitude = -0.3194
    D(  412) --> V(    3) amplitude =  0.2203
    D(  413) --> V(    3) amplitude =  0.2369
    D(  418) --> V(    4) amplitude =  0.2500
    D(  418) --> V(    5) amplitude = -0.4302

 Excited state  23: excitation energy (eV) =    2.9465
 Total energy for state 23:                 -5124.73810687 au
    Multiplicity: Singlet
    Trans. Mom.: -0.0794 X  -0.1571 Y  -0.0478 Z
    Strength   :     0.0024025168
    D(  409) --> V(    1) amplitude = -0.6458
    D(  409) --> V(    2) amplitude = -0.4055
    D(  410) --> V(    3) amplitude =  0.2274

 Excited state  24: excitation energy (eV) =    2.9619
 Total energy for state 24:                 -5124.73754321 au
    Multiplicity: Singlet
    Trans. Mom.: -0.0086 X   0.3497 Y  -0.0374 Z
    Strength   :     0.0089827888
    D(  410) --> V(    1) amplitude =  0.3134
    D(  410) --> V(    2) amplitude =  0.2387
    D(  410) --> V(    3) amplitude =  0.3663
    D(  412) --> V(    3) amplitude =  0.2912
    D(  419) --> V(    2) amplitude =  0.3540
    D(  419) --> V(    3) amplitude =  0.2927

 Excited state  25: excitation energy (eV) =    2.9654
 Total energy for state 25:                 -5124.73741184 au
    Multiplicity: Singlet
    Trans. Mom.: -0.1251 X  -0.0343 Y   0.0941 Z
    Strength   :     0.0018661775
    D(  408) --> V(    1) amplitude = -0.3944
    D(  409) --> V(    1) amplitude =  0.2243
    D(  409) --> V(    2) amplitude = -0.2736
    D(  412) --> V(    3) amplitude = -0.4291
    D(  413) --> V(    3) amplitude = -0.2335
 
 ---------------------------------------------------
  SETman timing summary (seconds)
  CPU time            205434.12s
  System time              0.05s
  Wall time            10490.92s
 Created directory /tmp/xs13_9697722/qchem237346/plots
================================================================================
                             Excited State Analysis
================================================================================

  Ground State (Reference) :
  -------------------------
    NOs
      Occupation of frontier NOs:
         0.0000   2.0000
      Number of electrons: 840.000000
      Number of unpaired electrons: n_u = -0.00000, n_u,nl =  0.00000
    
    Mulliken Population Analysis
     Atom      Charge (e)
    ---------------------
      1 C        0.294916
      2 C        0.046655
      3 C        0.006286
      4 C       -0.165602
      5 C       -0.024371
      6 C        0.191361
      7 C       -0.214108
      8 C        0.206364
      9 C        0.007270
     10 C        0.083205
     11 C       -0.203504
     12 C       -0.077733
     13 C        0.070633
     14 C        0.145543
     15 C        0.286272
     16 C       -0.246891
     17 C       -0.045629
     18 C       -0.209490
     19 C       -0.025086
     20 C       -0.385646
     21 C       -0.347728
     22 C        0.160049
     23 C        0.378381
     24 C       -0.195633
     25 C        0.137092
     26 C       -0.024316
     27 C       -0.094380
     28 C       -0.102777
     29 C       -0.066177
     30 C       -0.418570
     31 C        0.362753
     32 C        0.110298
     33 C        0.260346
     34 C        0.101951
     35 C        0.376370
     36 C        0.186003
     37 C        0.099202
     38 C        0.204947
     39 C        0.408520
     40 C       -0.032392
     41 C       -0.172078
     42 C       -0.207412
     43 C       -0.418307
     44 C       -0.005733
     45 C        0.038157
     46 C       -0.352533
     47 C       -0.099640
     48 C       -0.063411
     49 C       -0.230615
     50 C       -0.079803
     51 C        0.078552
     52 C        0.032865
     53 C       -0.011422
     54 C        0.383334
     55 C       -0.253725
     56 C        0.155469
     57 C        0.074722
     58 C        0.106255
     59 C        0.232661
     60 C        0.054360
     61 C       -0.097905
     62 C       -0.033301
     63 C       -0.292293
     64 C        0.094527
     65 C        0.016889
     66 C       -0.128702
     67 C       -0.152159
     68 C        0.034027
     69 C        0.047147
     70 C       -0.065297
     71 C       -0.226423
     72 C       -0.286626
     73 C       -0.349698
     74 C        0.260380
     75 C        0.186009
     76 C        0.136724
     77 C       -0.372285
     78 C       -0.241698
     79 C       -0.272528
     80 C       -0.430419
     81 C        0.270307
     82 C        0.067015
     83 C        0.234665
     84 C       -0.386929
     85 C       -0.203459
     86 C       -0.259089
     87 C       -0.231769
     88 C       -0.388015
     89 C       -0.084440
     90 C        0.201656
     91 C       -0.321393
     92 C       -0.358473
     93 C        0.092572
     94 C        0.375713
     95 C       -0.510549
     96 C       -0.320362
     97 C        0.138287
     98 C        0.100598
     99 C        0.070748
    100 C        0.262965
    101 C       -0.433932
    102 C       -0.224220
    103 C       -0.263152
    104 C       -0.235258
    105 C       -0.375653
    106 C        0.346166
    107 C       -0.451906
    108 C       -0.263255
    109 C       -0.275833
    110 C       -0.378171
    111 C        0.199685
    112 C        0.007243
    113 C        0.279406
    114 C       -0.382418
    115 C       -0.260723
    116 C       -0.214086
    117 C       -0.266573
    118 C       -0.427372
    119 C        0.110931
    120 C        0.138906
    121 C       -0.279696
    122 C       -0.552693
    123 C        0.398988
    124 C        0.074550
    125 C       -0.365714
    126 C       -0.371267
    127 C        0.158668
    128 C       -0.052821
    129 C       -0.330494
    130 C       -0.010455
    131 C        0.019057
    132 C       -0.465624
    133 C       -0.392088
    134 C       -0.254473
    135 H        0.227204
    136 H        0.228747
    137 H        0.263180
    138 H        0.262533
    139 H        0.209725
    140 H        0.220654
    141 H        0.257458
    142 H        0.264233
    143 H        0.211255
    144 H        0.230079
    145 H        0.225751
    146 H        0.273595
    147 H        0.270853
    148 H        0.211009
    149 H        0.231276
    150 H        0.274178
    151 H        0.264967
    152 H        0.221979
    153 H        0.230653
    154 H        0.222985
    155 H        0.270420
    156 H        0.265035
    157 H        0.210890
    158 H        0.219040
    159 H        0.272725
    160 H        0.260865
    161 H        0.233851
    162 H        0.216514
    163 H        0.224627
    164 H        0.272010
    165 H        0.257993
    166 H        0.228614
    167 H        0.218306
    168 H        0.278133
    169 H        0.257429
    170 H        0.223012
    ---------------------
     Sum:       -0.000000
    
    Multipole moment analysis of the density matrix
      Molecular charge:                      -0.000000
      Number of electrons:                   840.000000
        Center of electronic charge [Ang]: [ 39.538265,  25.982596,  37.141021]
      Total nuclear charge:                  840.000000
        Center of nuclear charge [Ang]:    [ 39.537992,  25.982710,  37.141315]
      Dipole moment [D]:                     1.682324
        Cartesian components [D]:          [ -1.103173,   0.457407,   1.184906]
      RMS size of the density [Ang]:         6.000343
        Cartesian components [Ang]:        [  3.146510,   4.138507,   2.996056]
    

  ----------------------------------------------------------------------------
                  Analysis of Unrelaxed Density Matrices
  ----------------------------------------------------------------------------

  Singlet 1 :
  -------------------------
    NOs
      Occupation of frontier NOs:
         0.9928   1.0072
      Number of electrons: 840.000000
      Number of unpaired electrons: n_u =  2.00000, n_u,nl =  1.99999
      NO participation ratio (PR_NO):  2.029226
    
    
    Mulliken Population Analysis
     Atom      Charge (e)              h+              e-           Del q
    ---------------------------------------------------------------------
      1 C        0.273125        0.000233       -0.022024       -0.021790
      2 C        0.048765       -0.000007        0.002117        0.002110
      3 C       -0.007726       -0.000000       -0.014012       -0.014012
      4 C       -0.182823        0.000350       -0.017571       -0.017220
      5 C       -0.032023        0.000205       -0.007857       -0.007652
      6 C        0.191447        0.000055        0.000032        0.000086
      7 C       -0.214130        0.000028       -0.000050       -0.000022
      8 C        0.209991        0.000005        0.003622        0.003626
      9 C        0.000602        0.000136       -0.006804       -0.006668
     10 C        0.066083        0.000057       -0.017179       -0.017122
     11 C       -0.215596       -0.000003       -0.012088       -0.012091
     12 C       -0.081976       -0.000132       -0.004111       -0.004243
     13 C        0.009202        0.000013       -0.061444       -0.061431
     14 C        0.101695        0.000163       -0.044012       -0.043849
     15 C        0.288455        0.000188        0.001995        0.002183
     16 C       -0.262855       -0.000029       -0.015935       -0.015964
     17 C       -0.082572        0.000490       -0.037433       -0.036943
     18 C       -0.217953        0.000162       -0.008625       -0.008463
     19 C       -0.025623       -0.000019       -0.000518       -0.000537
     20 C       -0.390315        0.000040       -0.004709       -0.004669
     21 C       -0.350261        0.000177       -0.002710       -0.002532
     22 C        0.129091        0.000208       -0.031166       -0.030958
     23 C        0.373968       -0.000006       -0.004407       -0.004413
     24 C       -0.197644        0.000033       -0.002044       -0.002010
     25 C        0.065473       -0.000182       -0.071437       -0.071618
     26 C       -0.076228        0.000032       -0.051945       -0.051913
     27 C       -0.110599        0.000254       -0.016473       -0.016219
     28 C       -0.156963        0.000048       -0.054234       -0.054186
     29 C       -0.070698        0.000106       -0.004628       -0.004522
     30 C       -0.434373        0.000018       -0.015821       -0.015803
     31 C        0.362883        0.000031        0.000098        0.000130
     32 C        0.110033       -0.000013       -0.000252       -0.000265
     33 C        0.259958       -0.000010       -0.000377       -0.000387
     34 C        0.092826        0.000039       -0.009165       -0.009125
     35 C        0.372887        0.000118       -0.003601       -0.003483
     36 C        0.173692        0.000142       -0.012453       -0.012311
     37 C        0.093215       -0.000305       -0.005682       -0.005987
     38 C        0.194905        0.000879       -0.010921       -0.010043
     39 C        0.407372       -0.000064       -0.001084       -0.001148
     40 C       -0.039657        0.000281       -0.007545       -0.007264
     41 C       -0.184517        0.000010       -0.012449       -0.012439
     42 C       -0.212250        0.000050       -0.004888       -0.004838
     43 C       -0.421610       -0.000006       -0.003297       -0.003303
     44 C       -0.011240        0.000061       -0.005569       -0.005508
     45 C        0.007221        0.000310       -0.031246       -0.030936
     46 C       -0.357423        0.000000       -0.004890       -0.004890
     47 C       -0.143108        0.000011       -0.043479       -0.043468
     48 C       -0.084086        0.000343       -0.021018       -0.020675
     49 C       -0.276190       -0.000169       -0.045406       -0.045575
     50 C       -0.153880       -0.000005       -0.074072       -0.074077
     51 C        0.071219        0.000092       -0.007425       -0.007333
     52 C       -0.005719        0.000050       -0.038635       -0.038585
     53 C       -0.010147        0.000051        0.001224        0.001275
     54 C        0.379048        0.000087       -0.004373       -0.004286
     55 C       -0.253614        0.000062        0.000049        0.000110
     56 C        0.157367        0.000021        0.001877        0.001898
     57 C        0.057295        0.000036       -0.017463       -0.017427
     58 C        0.103462        0.000013       -0.002807       -0.002794
     59 C        0.213813        0.000033       -0.018881       -0.018848
     60 C        0.020955        0.000090       -0.033496       -0.033406
     61 C       -0.100201        0.000028       -0.002325       -0.002297
     62 C       -0.032778        0.000003        0.000521        0.000523
     63 C       -0.290329        0.000065        0.001899        0.001964
     64 C        0.090484        0.000055       -0.004097       -0.004043
     65 C        0.016151        0.000027       -0.000765       -0.000738
     66 C       -0.147841        0.000048       -0.019187       -0.019139
     67 C       -0.151854        0.000015        0.000289        0.000305
     68 C        0.027281        0.000006       -0.006751       -0.006745
     69 C        0.040370        0.000006       -0.006783       -0.006777
     70 C       -0.079624        0.000000       -0.014327       -0.014327
     71 C       -0.224328        0.002104       -0.000009        0.002095
     72 C       -0.286370        0.000280       -0.000025        0.000255
     73 C       -0.346627        0.003138       -0.000067        0.003071
     74 C        0.261883        0.001516       -0.000014        0.001502
     75 C        0.227927        0.042060       -0.000142        0.041918
     76 C        0.142070        0.005469       -0.000123        0.005346
     77 C       -0.357118        0.015181       -0.000013        0.015167
     78 C       -0.232902        0.008880       -0.000084        0.008796
     79 C       -0.263385        0.009162       -0.000019        0.009144
     80 C       -0.416535        0.013947       -0.000063        0.013884
     81 C        0.275351        0.005086       -0.000042        0.005045
     82 C        0.110429        0.043657       -0.000243        0.043414
     83 C        0.237097        0.002500       -0.000067        0.002432
     84 C       -0.382474        0.004563       -0.000109        0.004454
     85 C       -0.202911        0.000553       -0.000005        0.000548
     86 C       -0.254720        0.004444       -0.000075        0.004369
     87 C       -0.231741        0.000096       -0.000068        0.000029
     88 C       -0.381967        0.006591       -0.000543        0.006048
     89 C       -0.083737        0.000639        0.000064        0.000702
     90 C        0.265487        0.065014       -0.001183        0.063830
     91 C       -0.310062        0.011373       -0.000042        0.011331
     92 C       -0.308210        0.052083       -0.001820        0.050263
     93 C        0.135016        0.043259       -0.000816        0.042444
     94 C        0.410048        0.034451       -0.000116        0.034335
     95 C       -0.461110        0.049709       -0.000270        0.049439
     96 C       -0.309547        0.010854       -0.000039        0.010815
     97 C        0.197686        0.059390        0.000009        0.059399
     98 C        0.100422        0.000008       -0.000184       -0.000176
     99 C        0.113226        0.042544       -0.000066        0.042479
    100 C        0.264437        0.001475       -0.000002        0.001473
    101 C       -0.430590        0.003347       -0.000005        0.003342
    102 C       -0.223407        0.000813       -0.000000        0.000812
    103 C       -0.259784        0.003370       -0.000002        0.003368
    104 C       -0.234953        0.000306       -0.000001        0.000305
    105 C       -0.371142        0.004515       -0.000004        0.004511
    106 C        0.352365        0.006214       -0.000015        0.006199
    107 C       -0.439820        0.012091       -0.000005        0.012086
    108 C       -0.252478        0.010794       -0.000017        0.010776
    109 C       -0.268707        0.007133       -0.000006        0.007126
    110 C       -0.365388        0.012797       -0.000015        0.012782
    111 C        0.203269        0.003594       -0.000011        0.003584
    112 C        0.047212        0.040163       -0.000193        0.039970
    113 C        0.280677        0.001263        0.000009        0.001272
    114 C       -0.380732        0.001689       -0.000003        0.001685
    115 C       -0.260491        0.000252       -0.000019        0.000232
    116 C       -0.213085        0.001024       -0.000024        0.001000
    117 C       -0.266454        0.000125       -0.000006        0.000119
    118 C       -0.425995        0.001406       -0.000029        0.001377
    119 C        0.111130        0.000200       -0.000002        0.000199
    120 C        0.199258        0.061261       -0.000910        0.060352
    121 C       -0.271217        0.009617       -0.001138        0.008479
    122 C       -0.492371        0.060902       -0.000579        0.060322
    123 C        0.433121        0.036256       -0.002123        0.034133
    124 C        0.115770        0.041652       -0.000432        0.041220
    125 C       -0.307765        0.058005       -0.000056        0.057949
    126 C       -0.360059        0.012465       -0.001257        0.011208
    127 C        0.221097        0.062130        0.000298        0.062429
    128 C       -0.053300       -0.000098       -0.000380       -0.000478
    129 C       -0.330564        0.000397       -0.000467       -0.000070
    130 C       -0.010735       -0.001095        0.000814       -0.000280
    131 C        0.019832       -0.001285        0.002059        0.000775
    132 C       -0.464584       -0.000079        0.001118        0.001040
    133 C       -0.390232        0.001862       -0.000006        0.001856
    134 C       -0.254107        0.000369       -0.000003        0.000366
    135 H        0.227204        0.000001       -0.000000        0.000000
    136 H        0.228885        0.000144       -0.000005        0.000138
    137 H        0.263170        0.000000       -0.000010       -0.000010
    138 H        0.262540        0.000007       -0.000000        0.000007
    139 H        0.209751        0.000026       -0.000000        0.000026
    140 H        0.220667        0.000014       -0.000000        0.000013
    141 H        0.257463        0.000005       -0.000000        0.000005
    142 H        0.264256        0.000042       -0.000019        0.000023
    143 H        0.211373        0.000121       -0.000003        0.000118
    144 H        0.230076        0.000000       -0.000004       -0.000004
    145 H        0.225866        0.000139       -0.000023        0.000115
    146 H        0.273606        0.000086       -0.000075        0.000011
    147 H        0.270929        0.000079       -0.000003        0.000076
    148 H        0.211088        0.000069        0.000009        0.000079
    149 H        0.231255       -0.000014       -0.000007       -0.000021
    150 H        0.274165       -0.000013        0.000000       -0.000013
    151 H        0.264994        0.000027        0.000000        0.000027
    152 H        0.222065        0.000086       -0.000000        0.000086
    153 H        0.230653        0.000000       -0.000000        0.000000
    154 H        0.223106        0.000121       -0.000000        0.000121
    155 H        0.270411       -0.000009        0.000001       -0.000008
    156 H        0.265047        0.000012       -0.000000        0.000012
    157 H        0.210916        0.000027       -0.000000        0.000027
    158 H        0.219047        0.000006       -0.000000        0.000006
    159 H        0.272735        0.000010        0.000000        0.000010
    160 H        0.260827        0.000004       -0.000042       -0.000038
    161 H        0.233924        0.000077       -0.000003        0.000074
    162 H        0.216514       -0.000000        0.000000        0.000000
    163 H        0.224738        0.000111       -0.000000        0.000111
    164 H        0.272066        0.000057       -0.000001        0.000056
    165 H        0.257960       -0.000034        0.000001       -0.000033
    166 H        0.228658        0.000045       -0.000001        0.000044
    167 H        0.218313        0.000009       -0.000002        0.000007
    168 H        0.278194        0.000064       -0.000003        0.000061
    169 H        0.257459        0.000029        0.000000        0.000030
    170 H        0.223066        0.000055       -0.000000        0.000055
    ---------------------------------------------------------------------
     Sum:       -0.000000        1.000000       -1.000000        0.000000
    
    Multipole moment analysis of the density matrix
      Molecular charge:                      -0.000000
      Number of electrons:                   840.000000
        Center of electronic charge [Ang]: [ 39.541602,  25.980770,  37.137374]
      Total nuclear charge:                  840.000000
        Center of nuclear charge [Ang]:    [ 39.537992,  25.982710,  37.141315]
      Dipole moment [D]:                     22.937466
        Cartesian components [D]:          [-14.563948,   7.826388,  15.898630]
      RMS size of the density [Ang]:         5.998510
        Cartesian components [Ang]:        [  3.145686,   4.136568,   2.995928]
    
    Exciton analysis of the difference density matrix
      <r_h> [Ang]:                  [ 37.409716,  27.243613,  39.136391]
      <r_e> [Ang]:                  [ 40.212173,  25.709433,  36.073077]
      |<r_e - r_h>| [Ang]:            4.426214
      Hole size [Ang]:                4.957442
        Cartesian components [Ang]: [  2.051776,   4.152523,   1.767203]
      Electron size [Ang]:            3.815135
        Cartesian components [Ang]: [  1.984749,   2.298930,   2.308883]

  Singlet 2 :
  -------------------------
    NOs
      Occupation of frontier NOs:
         0.9825   1.0175
      Number of electrons: 840.000000
      Number of unpaired electrons: n_u =  2.00000, n_u,nl =  2.00052
      NO participation ratio (PR_NO):  2.071599
    
    
    Mulliken Population Analysis
     Atom      Charge (e)              h+              e-           Del q
    ---------------------------------------------------------------------
      1 C        0.289763        0.000532       -0.005685       -0.005153
      2 C        0.008946        0.000002       -0.037711       -0.037709
      3 C       -0.028903        0.000033       -0.035222       -0.035189
      4 C       -0.185556        0.000896       -0.020850       -0.019954
      5 C       -0.096910        0.000397       -0.072936       -0.072539
      6 C        0.173847        0.000043       -0.017556       -0.017513
      7 C       -0.225454        0.000012       -0.011358       -0.011346
      8 C        0.207750        0.000010        0.001375        0.001385
      9 C       -0.010806        0.000242       -0.018318       -0.018076
     10 C        0.054714        0.000256       -0.028747       -0.028491
     11 C       -0.232485       -0.000023       -0.028958       -0.028981
     12 C       -0.093591        0.000105       -0.015963       -0.015857
     13 C        0.062362        0.000026       -0.008297       -0.008271
     14 C        0.139025       -0.000013       -0.006506       -0.006518
     15 C        0.253692        0.000395       -0.032975       -0.032580
     16 C       -0.284257        0.000255       -0.037621       -0.037366
     17 C       -0.078848        0.001023       -0.034241       -0.033219
     18 C       -0.207414        0.000321        0.001756        0.002077
     19 C       -0.054329       -0.000036       -0.029207       -0.029243
     20 C       -0.419337        0.000098       -0.033790       -0.033692
     21 C       -0.381431        0.000560       -0.034263       -0.033703
     22 C        0.134530        0.000554       -0.026073       -0.025518
     23 C        0.366014        0.000069       -0.012436       -0.012367
     24 C       -0.194907        0.000079        0.000647        0.000726
     25 C        0.126658       -0.000029       -0.010404       -0.010434
     26 C       -0.059731        0.000133       -0.035548       -0.035416
     27 C       -0.130865        0.000239       -0.036724       -0.036485
     28 C       -0.101351        0.000052        0.001374        0.001426
     29 C       -0.063322        0.000224        0.002631        0.002855
     30 C       -0.438477        0.000187       -0.020094       -0.019907
     31 C        0.369196        0.000041        0.006403        0.006444
     32 C        0.097939       -0.000023       -0.012336       -0.012359
     33 C        0.260386       -0.000022        0.000062        0.000041
     34 C        0.103152        0.000001        0.001200        0.001201
     35 C        0.380356        0.000276        0.003710        0.003986
     36 C        0.182574        0.000113       -0.003543       -0.003429
     37 C        0.088698       -0.000198       -0.010306       -0.010504
     38 C        0.209237        0.000652        0.003638        0.004290
     39 C        0.407418       -0.000023       -0.001079       -0.001102
     40 C       -0.036362        0.000291       -0.004262       -0.003970
     41 C       -0.191816        0.000130       -0.019868       -0.019738
     42 C       -0.210128        0.000075       -0.002791       -0.002717
     43 C       -0.419030        0.000015       -0.000737       -0.000722
     44 C       -0.027425        0.000151       -0.021843       -0.021692
     45 C        0.012163        0.000787       -0.026782       -0.025994
     46 C       -0.375592        0.000110       -0.023169       -0.023059
     47 C       -0.108855        0.000070       -0.009284       -0.009214
     48 C       -0.076310        0.000208       -0.013107       -0.012899
     49 C       -0.248805       -0.000090       -0.018100       -0.018190
     50 C       -0.081064       -0.000019       -0.001242       -0.001261
     51 C        0.066099        0.000071       -0.012525       -0.012454
     52 C        0.026965        0.000026       -0.005926       -0.005900
     53 C       -0.018828        0.000140       -0.007545       -0.007405
     54 C        0.369753        0.000259       -0.013840       -0.013581
     55 C       -0.256633        0.000211       -0.003120       -0.002909
     56 C        0.155886        0.000063        0.000354        0.000417
     57 C        0.066894        0.000100       -0.007927       -0.007827
     58 C        0.100797        0.000039       -0.005497       -0.005458
     59 C        0.228935       -0.000075       -0.003651       -0.003726
     60 C        0.054753        0.000093        0.000299        0.000393
     61 C       -0.115851        0.000101       -0.018048       -0.017947
     62 C       -0.037280       -0.000001       -0.003978       -0.003979
     63 C       -0.308185        0.000043       -0.015935       -0.015892
     64 C        0.095344        0.000125        0.000692        0.000817
     65 C        0.002504        0.000036       -0.014421       -0.014385
     66 C       -0.130948        0.000078       -0.002324       -0.002246
     67 C       -0.178939        0.000059       -0.026839       -0.026780
     68 C        0.012243        0.000039       -0.021822       -0.021783
     69 C        0.016155        0.000032       -0.031024       -0.030992
     70 C       -0.070401        0.000007       -0.005111       -0.005104
     71 C       -0.223931        0.002496       -0.000005        0.002492
     72 C       -0.286351        0.000307       -0.000032        0.000275
     73 C       -0.346169        0.003636       -0.000106        0.003530
     74 C        0.262274        0.001907       -0.000013        0.001894
     75 C        0.231039        0.045072       -0.000042        0.045030
     76 C        0.141538        0.004825       -0.000011        0.004814
     77 C       -0.354923        0.017376       -0.000014        0.017362
     78 C       -0.232472        0.009232       -0.000006        0.009226
     79 C       -0.262365        0.010181       -0.000018        0.010163
     80 C       -0.415309        0.015112       -0.000002        0.015110
     81 C        0.275436        0.005144       -0.000015        0.005129
     82 C        0.110061        0.043044        0.000002        0.043046
     83 C        0.237159        0.002483        0.000011        0.002494
     84 C       -0.382322        0.004612       -0.000005        0.004606
     85 C       -0.202951        0.000509       -0.000001        0.000508
     86 C       -0.254628        0.004467       -0.000006        0.004461
     87 C       -0.231695        0.000085       -0.000011        0.000074
     88 C       -0.381685        0.006370       -0.000040        0.006330
     89 C       -0.083685        0.000865       -0.000110        0.000755
     90 C        0.257682        0.055921        0.000105        0.056026
     91 C       -0.311261        0.010652       -0.000519        0.010133
     92 C       -0.313770        0.045044       -0.000341        0.044703
     93 C        0.128406        0.035863       -0.000029        0.035834
     94 C        0.406597        0.030761        0.000124        0.030885
     95 C       -0.467395        0.043259       -0.000104        0.043155
     96 C       -0.309108        0.011350       -0.000096        0.011254
     97 C        0.191845        0.053621       -0.000064        0.053558
     98 C        0.100939        0.000223        0.000117        0.000341
     99 C        0.115405        0.044698       -0.000041        0.044657
    100 C        0.264631        0.001666        0.000001        0.001667
    101 C       -0.430411        0.003523       -0.000002        0.003521
    102 C       -0.223349        0.000871       -0.000000        0.000871
    103 C       -0.259514        0.003639       -0.000001        0.003638
    104 C       -0.234943        0.000315       -0.000000        0.000315
    105 C       -0.370799        0.004856       -0.000002        0.004853
    106 C        0.352971        0.006842       -0.000038        0.006804
    107 C       -0.438081        0.013827       -0.000003        0.013825
    108 C       -0.250538        0.012736       -0.000020        0.012716
    109 C       -0.268231        0.007606       -0.000004        0.007602
    110 C       -0.362762        0.015419       -0.000011        0.015408
    111 C        0.202818        0.003117        0.000015        0.003132
    112 C        0.052866        0.045668       -0.000044        0.045624
    113 C        0.281002        0.001647       -0.000051        0.001597
    114 C       -0.380016        0.002075        0.000326        0.002401
    115 C       -0.260471        0.000283       -0.000030        0.000252
    116 C       -0.212742        0.001361       -0.000018        0.001343
    117 C       -0.266476        0.000165       -0.000068        0.000097
    118 C       -0.425675        0.001694        0.000003        0.001697
    119 C        0.111953        0.001067       -0.000045        0.001022
    120 C        0.202125        0.063509       -0.000291        0.063218
    121 C       -0.268869        0.011168       -0.000341        0.010827
    122 C       -0.491625        0.061253       -0.000185        0.061068
    123 C        0.438988        0.039870        0.000130        0.040000
    124 C        0.116590        0.042055       -0.000015        0.042040
    125 C       -0.307575        0.058224       -0.000085        0.058139
    126 C       -0.359962        0.012245       -0.000940        0.011305
    127 C        0.219876        0.061395       -0.000186        0.061208
    128 C       -0.052155        0.000679       -0.000013        0.000666
    129 C       -0.330915        0.000170       -0.000591       -0.000421
    130 C       -0.012075       -0.001348       -0.000272       -0.001620
    131 C        0.017911       -0.001448        0.000301       -0.001147
    132 C       -0.466024        0.000119       -0.000520       -0.000400
    133 C       -0.390054        0.002040       -0.000006        0.002034
    134 C       -0.254032        0.000442       -0.000001        0.000441
    135 H        0.227203        0.000001       -0.000002       -0.000001
    136 H        0.228907        0.000164       -0.000003        0.000160
    137 H        0.263121        0.000001       -0.000060       -0.000059
    138 H        0.262541        0.000008       -0.000000        0.000008
    139 H        0.209759        0.000034       -0.000000        0.000034
    140 H        0.220669        0.000016       -0.000000        0.000015
    141 H        0.257466        0.000008       -0.000000        0.000008
    142 H        0.264278        0.000045       -0.000000        0.000045
    143 H        0.211379        0.000124       -0.000000        0.000124
    144 H        0.230079        0.000000       -0.000000       -0.000000
    145 H        0.225871        0.000132       -0.000012        0.000120
    146 H        0.273660        0.000081       -0.000017        0.000064
    147 H        0.270929        0.000072        0.000003        0.000076
    148 H        0.211074        0.000051        0.000013        0.000065
    149 H        0.231268       -0.000018        0.000009       -0.000009
    150 H        0.274166       -0.000011       -0.000001       -0.000013
    151 H        0.264997        0.000031       -0.000000        0.000031
    152 H        0.222070        0.000092       -0.000000        0.000092
    153 H        0.230653        0.000000       -0.000000        0.000000
    154 H        0.223112        0.000127        0.000000        0.000127
    155 H        0.270414       -0.000006        0.000000       -0.000006
    156 H        0.265049        0.000013        0.000000        0.000014
    157 H        0.210920        0.000031       -0.000000        0.000030
    158 H        0.219047        0.000007       -0.000000        0.000007
    159 H        0.272734        0.000009        0.000000        0.000009
    160 H        0.260564        0.000012       -0.000313       -0.000301
    161 H        0.233950        0.000094        0.000005        0.000099
    162 H        0.216511       -0.000001       -0.000002       -0.000003
    163 H        0.224761        0.000134        0.000000        0.000134
    164 H        0.272073        0.000066       -0.000003        0.000064
    165 H        0.257964       -0.000036        0.000006       -0.000030
    166 H        0.228662        0.000048       -0.000000        0.000048
    167 H        0.218278        0.000011       -0.000039       -0.000028
    168 H        0.278211        0.000064        0.000014        0.000078
    169 H        0.257464        0.000036       -0.000001        0.000035
    170 H        0.223072        0.000061        0.000000        0.000061
    ---------------------------------------------------------------------
     Sum:       -0.000000        1.000000       -1.000000       -0.000000
    
    Multipole moment analysis of the density matrix
      Molecular charge:                      -0.000000
      Number of electrons:                   840.000000
        Center of electronic charge [Ang]: [ 39.543127,  25.980332,  37.137522]
      Total nuclear charge:                  840.000000
        Center of nuclear charge [Ang]:    [ 39.537992,  25.982710,  37.141315]
      Dipole moment [D]:                     27.483863
        Cartesian components [D]:          [-20.717308,   9.592162,  15.301840]
      RMS size of the density [Ang]:         5.998992
        Cartesian components [Ang]:        [  3.146544,   4.136394,   2.996233]
    
    Exciton analysis of the difference density matrix
      <r_h> [Ang]:                  [ 37.495747,  27.122320,  39.183995]
      <r_e> [Ang]:                  [ 41.579299,  25.220516,  36.244929]
      |<r_e - r_h>| [Ang]:            5.378695
      Hole size [Ang]:                5.103052
        Cartesian components [Ang]: [  2.110101,   4.284255,   1.798269]
      Electron size [Ang]:            4.068828
        Cartesian components [Ang]: [  2.157796,   2.095328,   2.740233]

  Singlet 3 :
  -------------------------
    NOs
      Occupation of frontier NOs:
         0.9826   1.0174
      Number of electrons: 840.000000
      Number of unpaired electrons: n_u =  2.00000, n_u,nl =  2.00009
      NO participation ratio (PR_NO):  2.071234
    
    
    Mulliken Population Analysis
     Atom      Charge (e)              h+              e-           Del q
    ---------------------------------------------------------------------
      1 C        0.252947        0.000489       -0.042458       -0.041969
      2 C        0.029977       -0.000093       -0.016585       -0.016678
      3 C       -0.017432       -0.000063       -0.023654       -0.023717
      4 C       -0.205007        0.000714       -0.040119       -0.039405
      5 C       -0.017066        0.000529        0.006777        0.007305
      6 C        0.181995        0.000330       -0.009696       -0.009365
      7 C       -0.265238        0.000009       -0.051139       -0.051130
      8 C        0.158260        0.000019       -0.048124       -0.048104
      9 C       -0.005539        0.000653       -0.013462       -0.012809
     10 C        0.063848        0.000320       -0.019677       -0.019357
     11 C       -0.236453        0.000027       -0.032976       -0.032949
     12 C       -0.094212        0.000525       -0.017004       -0.016479
     13 C        0.072840       -0.000035        0.002242        0.002207
     14 C        0.144678       -0.000055       -0.000810       -0.000866
     15 C        0.285132        0.000412       -0.001552       -0.001140
     16 C       -0.249067        0.000376       -0.002552       -0.002176
     17 C       -0.035480        0.001454        0.008695        0.010149
     18 C       -0.230505        0.000402       -0.021417       -0.021015
     19 C       -0.054578       -0.000005       -0.029487       -0.029492
     20 C       -0.408029        0.000198       -0.022581       -0.022383
     21 C       -0.383855        0.000675       -0.036802       -0.036127
     22 C        0.151478        0.001122       -0.009693       -0.008571
     23 C        0.359365        0.000263       -0.019279       -0.019016
     24 C       -0.248845        0.000142       -0.053354       -0.053212
     25 C        0.134585       -0.000070       -0.002437       -0.002507
     26 C       -0.022527        0.000348        0.001440        0.001789
     27 C       -0.118005        0.000106       -0.023731       -0.023625
     28 C       -0.107106        0.000222       -0.004551       -0.004329
     29 C       -0.119237        0.000312       -0.053373       -0.053060
     30 C       -0.443134        0.000373       -0.024936       -0.024564
     31 C        0.361632        0.000057       -0.001177       -0.001121
     32 C        0.106957        0.000068       -0.003409       -0.003341
     33 C        0.263667        0.000062        0.003259        0.003321
     34 C        0.103218       -0.000026        0.001293        0.001266
     35 C        0.390343        0.000245        0.013728        0.013973
     36 C        0.181489        0.000116       -0.004630       -0.004514
     37 C        0.104972       -0.000195        0.005965        0.005770
     38 C        0.204418        0.000604       -0.001134       -0.000529
     39 C        0.412589       -0.000012        0.004080        0.004069
     40 C       -0.032506        0.000357       -0.000471       -0.000114
     41 C       -0.191183        0.000126       -0.019231       -0.019105
     42 C       -0.259514        0.000029       -0.052131       -0.052102
     43 C       -0.454287       -0.000028       -0.035951       -0.035979
     44 C       -0.038534        0.000206       -0.033007       -0.032801
     45 C        0.033124        0.001146       -0.006179       -0.005033
     46 C       -0.378275        0.000280       -0.026022       -0.025742
     47 C       -0.103443        0.000053       -0.003855       -0.003802
     48 C       -0.082608        0.000270       -0.019466       -0.019196
     49 C       -0.230452        0.000142        0.000021        0.000163
     50 C       -0.077812        0.000078        0.001913        0.001991
     51 C        0.075006        0.000174       -0.003720       -0.003546
     52 C        0.038065        0.000102        0.005098        0.005200
     53 C       -0.037218        0.000202       -0.025998       -0.025796
     54 C        0.373810        0.000495       -0.010018       -0.009524
     55 C       -0.277919        0.000333       -0.024528       -0.024195
     56 C        0.127692        0.000044       -0.027821       -0.027777
     57 C        0.070846        0.000053       -0.003928       -0.003875
     58 C        0.090990        0.000071       -0.015336       -0.015265
     59 C        0.233075       -0.000151        0.000565        0.000414
     60 C        0.059041        0.000201        0.004480        0.004681
     61 C       -0.105542        0.000103       -0.007740       -0.007637
     62 C       -0.046497        0.000009       -0.013205       -0.013196
     63 C       -0.292267        0.000050       -0.000024        0.000026
     64 C        0.091296        0.000126       -0.003357       -0.003231
     65 C        0.018828        0.000102        0.001837        0.001939
     66 C       -0.152094        0.000217       -0.023609       -0.023392
     67 C       -0.161199        0.000049       -0.009089       -0.009040
     68 C        0.015241        0.000036       -0.018822       -0.018786
     69 C        0.053090        0.000097        0.005847        0.005943
     70 C       -0.082562        0.000008       -0.017273       -0.017265
     71 C       -0.224028        0.002439       -0.000044        0.002395
     72 C       -0.286374        0.000285       -0.000034        0.000251
     73 C       -0.346357        0.003437       -0.000096        0.003341
     74 C        0.262237        0.001854        0.000003        0.001857
     75 C        0.228254        0.042659       -0.000414        0.042245
     76 C        0.140824        0.004564       -0.000465        0.004100
     77 C       -0.355053        0.017353       -0.000120        0.017232
     78 C       -0.232645        0.009317       -0.000264        0.009053
     79 C       -0.262813        0.009930       -0.000214        0.009715
     80 C       -0.415190        0.015373       -0.000145        0.015228
     81 C        0.274560        0.004612       -0.000359        0.004253
     82 C        0.108024        0.041659       -0.000650        0.041008
     83 C        0.237065        0.002465       -0.000064        0.002401
     84 C       -0.382406        0.004602       -0.000079        0.004523
     85 C       -0.202985        0.000482       -0.000008        0.000474
     86 C       -0.254719        0.004465       -0.000095        0.004370
     87 C       -0.231672        0.000083        0.000014        0.000097
     88 C       -0.382122        0.006112       -0.000219        0.005893
     89 C       -0.084093        0.001028       -0.000681        0.000347
     90 C        0.251106        0.051703       -0.002253        0.049450
     91 C       -0.312513        0.009700       -0.000820        0.008880
     92 C       -0.318393        0.042303       -0.002224        0.040079
     93 C        0.122932        0.032043       -0.001683        0.030360
     94 C        0.405985        0.032004       -0.001732        0.030272
     95 C       -0.471788        0.040180       -0.001419        0.038761
     96 C       -0.308124        0.013361       -0.001123        0.012238
     97 C        0.190001        0.053333       -0.001619        0.051714
     98 C        0.100992        0.001043       -0.000649        0.000394
     99 C        0.124249        0.054079       -0.000578        0.053501
    100 C        0.265291        0.002353       -0.000026        0.002327
    101 C       -0.429661        0.004343       -0.000072        0.004271
    102 C       -0.223119        0.001105       -0.000005        0.001100
    103 C       -0.258498        0.004723       -0.000068        0.004655
    104 C       -0.234914        0.000357       -0.000012        0.000345
    105 C       -0.369529        0.006193       -0.000069        0.006124
    106 C        0.352987        0.007144       -0.000323        0.006821
    107 C       -0.433471        0.018570       -0.000136        0.018435
    108 C       -0.247752        0.015724       -0.000221        0.015502
[...]
  0.2059   0.2068   0.2116   0.2123   0.2141   0.2150   0.2168   0.2206
  0.2208   0.2227   0.2234   0.2245   0.2273   0.2286   0.2291   0.2313
  0.2330   0.2332   0.2346   0.2357   0.2359   0.2376   0.2381   0.2398
  0.2417   0.2433   0.2437   0.2443   0.2453   0.2462   0.2480   0.2485
  0.2496   0.2506   0.2512   0.2516   0.2529   0.2547   0.2552   0.2576
  0.2594   0.2610   0.2636   0.2639   0.2656   0.2665   0.2671   0.2691
  0.2697   0.2709   0.2716   0.2735   0.2745   0.2751   0.2760   0.2782
  0.2791   0.2805   0.2806   0.2829   0.2841   0.2871   0.2876   0.2894
  0.2908   0.2914   0.2924   0.2934   0.2941   0.2955   0.2971   0.2982
  0.2994   0.3010   0.3015   0.3026   0.3035   0.3047   0.3057   0.3071
  0.3082   0.3112   0.3133   0.3146   0.3150   0.3166   0.3193   0.3197
  0.3226   0.3241   0.3250   0.3269   0.3285   0.3292   0.3296   0.3316
  0.3336   0.3361   0.3364   0.3382   0.3393   0.3409   0.3413   0.3433
  0.3436   0.3446   0.3460   0.3474   0.3481   0.3489   0.3499   0.3516
  0.3524   0.3533   0.3538   0.3552   0.3573   0.3597   0.3602   0.3618
  0.3630   0.3639   0.3651   0.3668   0.3673   0.3679   0.3700   0.3703
  0.3716   0.3728   0.3753   0.3763   0.3770   0.3774   0.3783   0.3801
  0.3812   0.3816   0.3825   0.3839   0.3850   0.3857   0.3871   0.3885
  0.3892   0.3908   0.3911   0.3919   0.3926   0.3946   0.3954   0.3972
  0.3976   0.3985   0.3992   0.4004   0.4021   0.4032   0.4042   0.4054
  0.4081   0.4089   0.4099   0.4108   0.4129   0.4155   0.4161   0.4173
  0.4197   0.4210   0.4216   0.4225   0.4250   0.4264   0.4269   0.4277
  0.4290   0.4312   0.4314   0.4333   0.4351   0.4367   0.4386   0.4393
  0.4422   0.4429   0.4439   0.4450   0.4468   0.4476   0.4501   0.4509
  0.4514   0.4517   0.4533   0.4536   0.4541   0.4570   0.4574   0.4585
  0.4591   0.4613   0.4628   0.4636   0.4651   0.4657   0.4664   0.4675
  0.4692   0.4702   0.4709   0.4724   0.4733   0.4750   0.4758   0.4768
  0.4773   0.4785   0.4791   0.4807   0.4818   0.4828   0.4836   0.4857
  0.4862   0.4873   0.4883   0.4897   0.4912   0.4930   0.4941   0.4953
  0.4966   0.4973   0.4988   0.5001   0.5016   0.5032   0.5038   0.5051
  0.5069   0.5073   0.5075   0.5093   0.5103   0.5119   0.5129   0.5137
  0.5142   0.5166   0.5176   0.5195   0.5206   0.5216   0.5217   0.5225
  0.5242   0.5248   0.5255   0.5262   0.5273   0.5286   0.5292   0.5294
  0.5327   0.5334   0.5348   0.5363   0.5369   0.5372   0.5385   0.5401
  0.5411   0.5421   0.5433   0.5443   0.5451   0.5461   0.5475   0.5494
  0.5503   0.5521   0.5532   0.5547   0.5551   0.5558   0.5561   0.5584
  0.5588   0.5601   0.5620   0.5622   0.5639   0.5643   0.5657   0.5675
  0.5679   0.5684   0.5700   0.5703   0.5726   0.5730   0.5744   0.5750
  0.5784   0.5787   0.5796   0.5798   0.5816   0.5831   0.5851   0.5858
  0.5866   0.5897   0.5906   0.5912   0.5927   0.5936   0.5948   0.5974
  0.5983   0.5986   0.6007   0.6024   0.6037   0.6069   0.6081   0.6098
  0.6110   0.6124   0.6139   0.6156   0.6165   0.6184   0.6208   0.6217
  0.6234   0.6257   0.6268   0.6272   0.6285   0.6301   0.6306   0.6315
  0.6346   0.6357   0.6369   0.6388   0.6404   0.6421   0.6435   0.6444
  0.6459   0.6477   0.6486   0.6502   0.6516   0.6538   0.6553   0.6561
  0.6567   0.6573   0.6598   0.6621   0.6636   0.6651   0.6654   0.6660
  0.6676   0.6685   0.6698   0.6701   0.6711   0.6732   0.6744   0.6765
  0.6772   0.6784   0.6803   0.6820   0.6821   0.6831   0.6844   0.6854
  0.6859   0.6870   0.6898   0.6906   0.6918   0.6936   0.6939   0.6954
  0.6964   0.6968   0.6988   0.7004   0.7013   0.7026   0.7040   0.7042
  0.7051   0.7059   0.7075   0.7089   0.7104   0.7111   0.7126   0.7128
  0.7133   0.7142   0.7155   0.7158   0.7184   0.7199   0.7214   0.7218
  0.7228   0.7245   0.7263   0.7266   0.7270   0.7304   0.7310   0.7336
  0.7339   0.7344   0.7369   0.7387   0.7399   0.7418   0.7431   0.7438
  0.7453   0.7464   0.7485   0.7504   0.7522   0.7541   0.7555   0.7564
  0.7566   0.7594   0.7610   0.7629   0.7632   0.7656   0.7680   0.7690
  0.7718   0.7729   0.7740   0.7765   0.7772   0.7780   0.7790   0.7817
  0.7832   0.7852   0.7860   0.7902   0.7909   0.7938   0.7965   0.7977
  0.8008   0.8023   0.8032   0.8052   0.8085   0.8090   0.8116   0.8122
  0.8137   0.8144   0.8164   0.8168   0.8187   0.8196   0.8224   0.8236
  0.8254   0.8275   0.8302   0.8312   0.8329   0.8342   0.8359   0.8364
  0.8386   0.8397   0.8430   0.8438   0.8447   0.8456   0.8471   0.8484
  0.8496   0.8521   0.8541   0.8562   0.8579   0.8609   0.8615   0.8639
  0.8663   0.8680   0.8701   0.8729   0.8741   0.8764   0.8773   0.8785
  0.8802   0.8832   0.8839   0.8867   0.8882   0.8891   0.8914   0.8942
  0.8955   0.8983   0.8998   0.9021   0.9038   0.9053   0.9057   0.9095
  0.9125   0.9147   0.9150   0.9193   0.9214   0.9221   0.9225   0.9248
  0.9284   0.9284   0.9303   0.9332   0.9351   0.9383   0.9402   0.9423
  0.9447   0.9458   0.9496   0.9544   0.9555   0.9608   0.9619   0.9650
  0.9687   0.9698   0.9719   0.9754   0.9793   0.9811   0.9833   0.9857
  0.9890   0.9918   0.9934   0.9958   0.9980   1.0009   1.0019   1.0035
  1.0053   1.0096   1.0131   1.0181   1.0221   1.0237   1.0285   1.0326
  1.0365   1.0384   1.0424   1.0454   1.0478   1.0506   1.0549   1.0614
  1.0628   1.0673   1.0703   1.0728   1.0754   1.0803   1.0842   1.0902
  1.0919   1.0935   1.0973   1.1036   1.1093   1.1117   1.1171   1.1187
  1.1232   1.1309   1.1353   1.1356   1.1361   1.1396   1.1458   1.1497
  1.1563   1.1588   1.1605   1.1643   1.1678   1.1684   1.1697   1.1726
  1.1737   1.1790   1.1799   1.1823   1.1852   1.1900   1.1915   1.1931
  1.1948   1.1965   1.1993   1.2034   1.2045   1.2065   1.2088   1.2133
  1.2148   1.2194   1.2225   1.2283   1.2293   1.2351   1.2376   1.2436
  1.2443   1.2501   1.2537   1.2574   1.2586   1.2628   1.2657   1.2675
  1.2694   1.2711   1.2747   1.2799   1.2859   1.2875   1.2890   1.3001
  1.3082   1.3095   1.3151   1.3160   1.3220   1.3292   1.3347   1.3398
  1.3435   1.3462   1.3531   1.3553   1.3614   1.3649   1.3671   1.3712
  1.3762   1.3775   1.3807   1.3830   1.3901   1.3989   1.4066   1.4138
  1.4159   1.4202   1.4239   1.4288   1.4300   1.4396   1.4468   1.4502
  1.4536   1.4543   1.4615   1.4634   1.4666   1.4722   1.4778   1.4822
  1.4863   1.4994   1.5047   1.5103   1.5115   1.5233   1.5244   1.5317
  1.5428   1.5440   1.5504   1.5543   1.5593   1.5678   1.5719   1.5783
  1.5833   1.5979   1.6019   1.6063   1.6123   1.6202   1.6255   1.6297
  1.6351   1.6380   1.6454   1.6522   1.6579   1.6601   1.6661   1.6683
  1.6710   1.6742   1.6814   1.6854   1.6866   1.6900   1.6939   1.6992
  1.7065   1.7119   1.7136   1.7209   1.7225   1.7267   1.7312   1.7343
  1.7405   1.7474   1.7508   1.7543   1.7567   1.7587   1.7605   1.7656
  1.7722   1.7759   1.7802   1.7863   1.7920   1.7942   1.7945   1.7987
  1.8064   1.8078   1.8143   1.8166   1.8262   1.8329   1.8345   1.8414
  1.8450   1.8486   1.8556   1.8664   1.8779   1.8826   1.8911   1.8961
  1.9128   1.9169   1.9260   1.9509   1.9577   1.9666   1.9733   1.9928
  2.0039   2.0250   2.0360   2.0399   2.0547   2.0742   2.0956   2.1163
  2.2109   2.2652
 --------------------------------------------------------------
 
 -----------------------------------------------------------------
                    Cartesian Multipole Moments
 -----------------------------------------------------------------
    Charge (ESU x 10^10)
                -0.0000
    Dipole Moment (Debye)
         X      -1.1032      Y       0.4574      Z       1.1849
       Tot       1.6823
    Quadrupole Moments (Debye-Ang)
        XX    -824.8650     XY     -12.4076     YY    -709.9424
        XZ      36.9657     YZ      46.6623     ZZ    -643.3853
    Octopole Moments (Debye-Ang^2)
       XXX  -93032.7342    XXY  -20831.8836    XYY  -28996.3608
       YYY  -55994.1221    XXZ  -26343.4154    XYZ    1539.1619
       YYZ  -25591.3251    XZZ  -24664.2816    YZZ  -16090.3776
       ZZZ  -76200.4201
    Hexadecapole Moments (Debye-Ang^3)
      XXXX ************   XXXY ************   XXYY ************
      XYYY ************   YYYY ************   XXXZ ************
      XXYZ -661600.5289   XYYZ ************   YYYZ ************
      XXZZ ************   XYZZ -618804.2585   YYZZ ************
      XZZZ ************   YZZZ ************   ZZZZ ************
 -----------------------------------------------------------------
 Total job time:  13520.14s(wall), 265735.30s(cpu) 
 Fri Jun 21 03:35:13 2024

======= MOLDEN-FORMATTED INPUT FILE FOLLOWS =======
[Molden Format]
[Atoms] (Angs)
  C      1    6     42.96252100     25.40413100     38.99780700
  C      2    6     43.56951100     24.23159800     38.62693800
  C      3    6     42.59928500     23.26690700     38.79380000
  C      4    6     41.41036600     23.85870700     39.22391100
  C      5    6     41.64670900     25.22627300     39.33591500
  C      6    6     44.50022500     24.13263100     37.62336000
  C      7    6     44.47363700     23.11630100     36.68209800
  C      8    6     43.46083100     22.17647000     36.81312600
  C      9    6     42.57036200     22.19459300     37.85489700
  C     10    6     41.39645400     21.73600200     37.33271400
  C     11    6     40.16851000     22.32716600     37.73748800
  C     12    6     40.19350800     23.40619100     38.64962400
  C     13    6     39.25385700     24.36973200     38.31514000
  C     14    6     39.53915400     25.71260800     38.42232900
  C     15    6     40.73716000     26.12005200     38.89361200
  C     16    6     41.00410800     27.29885300     38.32066700
  C     17    6     42.42077300     27.51574100     37.95705800
  C     18    6     43.34587900     26.57100300     38.35477400
  C     19    6     44.23820100     26.53511200     37.31797800
  C     20    6     44.88639800     25.29852500     36.95850400
  C     21    6     42.68407100     28.11956600     36.71291400
  C     22    6     43.82300600     27.39197300     36.28180700
  C     23    6     44.72626100     23.72544900     35.46896700
  C     24    6     44.98424500     25.02602800     35.59890000
  C     25    6     39.96400500     27.60920100     37.44406500
  C     26    6     38.99600200     26.57156400     37.54915200
  C     27    6     38.56669600     23.89925800     37.20132100
  C     28    6     39.13945800     22.67707100     36.80474900
  C     29    6     41.53179200     21.51901100     35.99480800
  C     30    6     42.87505700     21.72886800     35.67058200
  C     31    6     43.22327000     22.22347800     34.40336200
  C     32    6     44.27158400     23.21624400     34.28192100
  C     33    6     44.64896400     25.95206300     34.56625700
  C     34    6     44.05810900     27.18850700     34.97272500
  C     35    6     41.61024100     28.42390800     35.84482200
  C     36    6     40.26907300     28.22134600     36.23919700
  C     37    6     38.02845000     24.79102100     36.21455400
  C     38    6     38.24430800     26.15895800     36.40419800
  C     39    6     40.51616300     21.66659400     35.03526700
  C     40    6     39.23110600     22.21294400     35.45940800
  C     41    6     42.24758100     22.13604500     33.41770900
  C     42    6     40.92789100     21.82456200     33.68225500
  C     43    6     44.32422300     25.45122100     33.31135200
  C     44    6     44.15839400     24.05386500     33.16540500
  C     45    6     43.17752100     27.82875800     34.13156500
  C     46    6     41.98985700     28.48922200     34.50941500
  C     47    6     38.49862300     23.01976600     34.56776800
  C     48    6     37.94263800     24.28867700     34.91037000
  C     49    6     38.30102200     27.02393700     35.23030500
  C     50    6     39.33538800     28.03317300     35.16522200
  C     51    6     39.71947500     28.10039300     33.84818300
  C     52    6     41.03842900     28.34328300     33.50837300
  C     53    6     42.93780900     27.32792900     32.85562900
  C     54    6     43.48738900     26.13129200     32.54032900
  C     55    6     43.24329000     23.96028100     32.13989300
  C     56    6     42.27074800     22.97972100     32.28920700
  C     57    6     40.11127100     22.50403000     32.76428200
  C     58    6     38.95533400     23.08959800     33.24564000
  C     59    6     38.14256700     26.45064000     33.96849100
  C     60    6     37.97203100     25.11446600     33.78319900
  C     61    6     40.96101800     23.21672600     31.88261400
  C     62    6     38.54922500     24.37913500     32.76908900
  C     63    6     38.95479200     27.14823000     33.09443300
  C     64    6     41.68427700     27.66751100     32.46612900
  C     65    6     42.83018100     25.24868600     31.74819200
  C     66    6     40.92887900     26.75316000     31.72649400
  C     67    6     41.51426700     25.50896300     31.32696500
  C     68    6     40.57111700     24.51926400     31.40180200
  C     69    6     39.59532900     26.45060300     32.03568300
  C     70    6     39.34886200     25.07960900     31.85266100
  C     71    6     43.13330100     31.77223200     42.16986100
  C     72    6     43.19750200     30.98377200     41.04697800
  C     73    6     42.23272300     31.14024400     40.02899900
  C     74    6     41.38081700     32.19119600     40.10870400
  C     75    6     40.47612400     32.32082000     39.03670900
  C     76    6     40.61354100     33.36555100     38.09038500
  C     77    6     41.73022100     34.23587000     38.16006500
  C     78    6     41.92925600     35.17198200     37.14450800
  C     79    6     41.09191900     35.29536800     36.07239200
  C     80    6     40.06164600     34.37810500     35.96184200
  C     81    6     39.73724400     33.40848900     36.93430300
  C     82    6     38.68010700     32.51880300     36.67058900
  C     83    6     37.87264300     32.54193500     35.52317000
  C     84    6     37.13200400     33.72655500     35.07067100
  C     85    6     36.38259900     33.64425300     33.94498400
  C     86    6     36.13190500     32.47077200     33.33973300
  C     87    6     36.72172500     31.32977700     33.79974000
  C     88    6     37.67309200     31.36743500     34.79768400
  C     89    6     38.58867600     31.53475600     37.70436100
  C     90    6     37.66962400     30.42470200     37.78973400
  C     91    6     36.51083000     30.09685900     37.16941500
  C     92    6     35.86179000     28.92269300     37.50830100
  C     93    6     36.29826400     28.07317000     38.58910400
  C     94    6     35.85452700     26.75367900     38.85133400
  C     95    6     34.89811700     26.10301200     38.04167600
  C     96    6     34.65073000     24.72071100     38.17451500
  C     97    6     35.34694700     24.02135700     39.16872000
  C     98    6     35.47706600     22.65615100     39.46593500
  C     99    6     34.77903400     21.56618100     38.93901800
  C    100    6     33.73806400     21.75989700     38.09478000
  C    101    6     33.64112900     21.19496500     36.80357700
  C    102    6     32.44781500     21.18992800     36.11541000
  C    103    6     31.27674100     21.76639200     36.68432200
  C    104    6     31.41095700     22.37311200     37.91748400
  C    105    6     32.63874400     22.39819000     38.59757200
  C    106    6     35.32000400     20.29478500     39.29843900
  C    107    6     34.83720000     19.13621500     38.70624900
  C    108    6     35.31269800     17.85564400     39.14299000
  C    109    6     36.31793200     17.68929500     40.11055800
  C    110    6     36.86159500     18.85378300     40.62117400
  C    111    6     36.39946700     20.12167900     40.23133100
  C    112    6     36.96654500     21.28142700     40.76320600
  C    113    6     38.10961200     21.23462900     41.61930800
  C    114    6     39.30783800     20.77271700     41.05244400
  C    115    6     40.50513100     20.71609500     41.81308400
  C    116    6     40.39046500     21.09799800     43.16125500
  C    117    6     39.16276600     21.44764100     43.75386800
  C    118    6     38.00204800     21.59008000     42.93512300
  C    119    6     36.48901400     22.51758000     40.38357500
  C    120    6     36.95601700     23.78385200     40.73445900
  C    121    6     37.92378200     24.33808100     41.53439300
  C    122    6     38.17256200     25.73241800     41.55179600
  C    123    6     37.53332900     26.59737400     40.63818000
  C    124    6     37.95170600     27.91512700     40.45226300
  C    125    6     39.10976400     28.51572400     41.01787200
  C    126    6     39.61177100     29.73499300     40.65259900
  C    127    6     39.03283300     30.31021500     39.58647200
  C    128    6     39.48259000     31.39022800     38.82437500
  C    129    6     38.03064000     29.74238600     38.88974800
  C    130    6     37.41022900     28.55814900     39.28471800
  C    131    6     36.55780800     25.98167800     39.81026500
  C    132    6     36.28731200     24.65755700     39.90838600
  C    133    6     41.50098000     33.17968800     41.05202900
  C    134    6     42.27906000     32.87699900     42.15850800
  H    135    1     43.60384400     31.54186600     43.12277600
  H    136    1     43.89085000     30.14770900     40.99947000
  H    137    1     41.96962400     30.40510200     39.27312100
  H    138    1     42.55727400     34.21336700     38.86507400
  H    139    1     42.64745300     35.97500600     37.28841400
  H    140    1     41.06152000     36.17747900     35.43791600
  H    141    1     39.47935500     34.47991600     35.04966000
  H    142    1     37.26973000     34.60997800     35.68876300
  H    143    1     35.78221500     34.51678500     33.69924200
  H    144    1     35.49247700     32.34559200     32.46928800
  H    145    1     36.47615100     30.42434300     33.25199900
  H    146    1     38.20127100     30.45489100     35.06230200
  H    147    1     36.05648000     30.76865400     36.44681500
  H    148    1     34.90723400     28.72686200     37.02660800
  H    149    1     34.41443600     26.70231800     37.27473100
  H    150    1     34.05819700     24.21779600     37.41463900
  H    151    1     34.55260100     20.76419600     36.39716700
  H    152    1     32.46399700     20.76210200     35.11671100
  H    153    1     30.35541700     21.75168800     36.10673100
  H    154    1     30.54959100     22.83861400     38.39077800
  H    155    1     32.71559900     22.98424000     39.50943400
  H    156    1     34.13264500     19.09737200     37.87866200
  H    157    1     34.97919500     16.96894300     38.61114500
  H    158    1     36.46319200     16.74609200     40.62986000
  H    159    1     37.63698600     18.77605400     41.37863900
  H    160    1     39.37927200     20.58852200     39.98295200
  H    161    1     41.47087900     20.43095200     41.40254600
  H    162    1     41.25757200     21.26984400     43.79444900
  H    163    1     39.19860800     21.62618600     44.82555800
  H    164    1     37.04231300     21.85161000     43.37434800
  H    165    1     38.52098800     23.68467700     42.16462700
  H    166    1     38.86886600     26.11851300     42.29253400
  H    167    1     39.65434600     27.96395100     41.77970500
  H    168    1     40.32129700     30.27104900     41.27808400
  H    169    1     40.79888500     34.00691600     40.97666200
  H    170    1     42.20970200     33.54284700     43.01533900

======= END OF MOLDEN-FORMATTED INPUT FILE =======


        *************************************************************
        *                                                           *
        *  Thank you very much for using Q-Chem.  Have a nice day.  *
        *                                                           *
        *************************************************************


remove work dirs /tmp/xs13_9697722/qchem237346.0 -- /tmp/xs13_9697722/qchem237346.-1
rm -rf /tmp/xs13_9697722/qchem237346
