 Entering Gaussian System, Link 0=g16
 Input=resp.com
 Output=resp.log
 Initial command:
 /gpfsnyu/packages/b.01/g16/l1.exe "/tmp/Gau-453920.inp" -scrdir="/tmp/"
 Entering Link 1 = /gpfsnyu/packages/b.01/g16/l1.exe PID=    453921.
  
 Copyright (c) 1988-2017, Gaussian, Inc.  All Rights Reserved.
  
 This is part of the Gaussian(R) 16 program.  It is based on
 the Gaussian(R) 09 system (copyright 2009, Gaussian, Inc.),
 the Gaussian(R) 03 system (copyright 2003, Gaussian, Inc.),
 the Gaussian(R) 98 system (copyright 1998, Gaussian, Inc.),
 the Gaussian(R) 94 system (copyright 1995, Gaussian, Inc.),
 the Gaussian 92(TM) system (copyright 1992, Gaussian, Inc.),
 the Gaussian 90(TM) system (copyright 1990, Gaussian, Inc.),
 the Gaussian 88(TM) system (copyright 1988, Gaussian, Inc.),
 the Gaussian 86(TM) system (copyright 1986, Carnegie Mellon
 University), and the Gaussian 82(TM) system (copyright 1983,
 Carnegie Mellon University). Gaussian is a federally registered
 trademark of Gaussian, Inc.
  
 This software contains proprietary and confidential information,
 including trade secrets, belonging to Gaussian, Inc.
  
 This software is provided under written license and may be
 used, copied, transmitted, or stored only in accord with that
 written license.
  
 The following legend is applicable only to US Government
 contracts under FAR:
  
                    RESTRICTED RIGHTS LEGEND
  
 Use, reproduction and disclosure by the US Government is
 subject to restrictions as set forth in subparagraphs (a)
 and (c) of the Commercial Computer Software - Restricted
 Rights clause in FAR 52.227-19.
  
 Gaussian, Inc.
 340 Quinnipiac St., Bldg. 40, Wallingford CT 06492
  
  
 ---------------------------------------------------------------
 Warning -- This program may not be used in any manner that
 competes with the business of Gaussian, Inc. or will provide
 assistance to any competitor of Gaussian, Inc.  The licensee
 of this program is prohibited from giving any competitor of
 Gaussian, Inc. access to this program.  By using this program,
 the user acknowledges that Gaussian, Inc. is engaged in the
 business of creating and licensing software in the field of
 computational chemistry and represents and warrants to the
 licensee that it is not a competitor of Gaussian, Inc. and that
 it will not use this program in any manner prohibited above.
 ---------------------------------------------------------------
  

 Cite this work as:
 Gaussian 16, Revision B.01,
 M. J. Frisch, G. W. Trucks, H. B. Schlegel, G. E. Scuseria, 
 M. A. Robb, J. R. Cheeseman, G. Scalmani, V. Barone, 
 G. A. Petersson, H. Nakatsuji, X. Li, M. Caricato, A. V. Marenich, 
 J. Bloino, B. G. Janesko, R. Gomperts, B. Mennucci, H. P. Hratchian, 
 J. V. Ortiz, A. F. Izmaylov, J. L. Sonnenberg, D. Williams-Young, 
 F. Ding, F. Lipparini, F. Egidi, J. Goings, B. Peng, A. Petrone, 
 T. Henderson, D. Ranasinghe, V. G. Zakrzewski, J. Gao, N. Rega, 
 G. Zheng, W. Liang, M. Hada, M. Ehara, K. Toyota, R. Fukuda, 
 J. Hasegawa, M. Ishida, T. Nakajima, Y. Honda, O. Kitao, H. Nakai, 
 T. Vreven, K. Throssell, J. A. Montgomery, Jr., J. E. Peralta, 
 F. Ogliaro, M. J. Bearpark, J. J. Heyd, E. N. Brothers, K. N. Kudin, 
 V. N. Staroverov, T. A. Keith, R. Kobayashi, J. Normand, 
 K. Raghavachari, A. P. Rendell, J. C. Burant, S. S. Iyengar, 
 J. Tomasi, M. Cossi, J. M. Millam, M. Klene, C. Adamo, R. Cammi, 
 J. W. Ochterski, R. L. Martin, K. Morokuma, O. Farkas, 
 J. B. Foresman, and D. J. Fox, Gaussian, Inc., Wallingford CT, 2016.
 
 ******************************************
 Gaussian 16:  ES64L-G16RevB.01 20-Dec-2017
                27-May-2024 
 ******************************************
 %chk=resp.chk
 %mem=100GB
 %nprocshared=40
 Will use up to   40 processors via shared memory.
 ----------------------------------------------------------
 # wb97xd/6-31+g iop(6/33=2) iop(6/42=6) pop=mk iop(6/50=1)
 ----------------------------------------------------------
 1/38=1,172=1/1;
 2/12=2,17=6,18=5,40=1/2;
 3/5=1,6=6,7=10,11=2,25=1,30=1,74=-58/1,2,3;
 4//1;
 5/5=2,38=5/2;
 6/7=2,8=2,9=2,10=2,15=8,20=1,28=1,33=2,42=6,50=1/1,2;
 99/5=1,9=1/99;
 ---
 C70
 ---
 Symbolic Z-matrix:
 Charge =  0 Multiplicity = 1
 C                     20.88393   22.34389   32.27164 
 C                     22.0077   21.98573   33.07798 
 C                     23.05323   21.70477   32.16956 
 C                     22.57797   21.85934   30.84444 
 C                     21.22298   22.27792   30.946 
 C                     22.36619   22.70645   34.2075 
 C                     23.69565   23.06026   34.41393 
 C                     24.70803   22.77609   33.52293 
 C                     24.34459   22.12808   32.37772 
 C                     25.16638   22.65754   31.34105 
 C                     24.69647   22.72515   29.9962 
 C                     23.37868   22.37367   29.80977 
 C                     22.89152   23.25556   28.90775 
 C                     21.53304   23.65569   29.0059 
 C                     20.74538   23.1931   30.04646 
 C                     19.97239   24.19895   30.45067 
 C                     19.61385   24.29047   31.72014 
 C                     20.05713   23.36205   32.66862 
 C                     20.35068   24.1077   33.87208 
 C                     21.51966   23.76919   34.60413 
 C                     19.62912   25.60954   32.27231 
 C                     20.11835   25.44916   33.60216 
 C                     23.66084   24.39568   34.97716 
 C                     22.29972   24.80893   35.04523 
 C                     20.21878   25.30694   29.60913 
 C                     21.22596   24.96805   28.76616 
 C                     23.85767   24.18211   28.54354 
 C                     24.92891   23.8656   29.26634 
 C                     26.05979   23.56658   31.91055 
 C                     25.72072   23.6859   33.21565 
 C                     25.70558   24.99488   33.85375 
 C                     24.69554   25.35836   34.74038 
 C                     21.9738   26.15789   34.82278 
 C                     20.83263   26.49106   34.1345 
 C                     19.87657   26.76709   31.47959 
 C                     20.14322   26.57352   30.12193 
 C                     23.5324   25.47518   28.21547 
 C                     22.22118   25.8737   28.36071 
 C                     26.3999   24.68564   31.12645 
 C                     25.82545   24.81665   29.83078 
 C                     26.32779   26.02615   33.13446 
 C                     26.69334   25.86273   31.79433 
 C                     22.99581   27.1245   34.95556 
 C                     24.32721   26.69978   34.91333 
 C                     20.76217   27.74881   33.46984 
 C                     20.26902   27.86556   32.21943 
 C                     25.58308   26.06364   29.31211 
 C                     24.54603   26.43593   28.47451 
 C                     21.95601   27.2379   28.63493 
 C                     20.90094   27.58703   29.52106 
 C                     21.27696   28.73609   30.18709 
 C                     20.96974   28.89417   31.5508 
 C                     21.79447   28.61931   33.5835 
 C                     22.86854   28.36986   34.38195 
 C                     24.99351   27.77472   34.24353 
 C                     26.00647   27.39438   33.30892 
 C                     26.54529   27.10442   31.18325 
 C                     25.98039   27.22749   29.89958 
 C                     22.92684   28.19219   28.77025 
 C                     24.23731   27.73769   28.72818 
 C                     26.15934   28.05298   32.11528 
 C                     25.18352   28.28267   29.56909 
 C                     22.50368   29.11109   29.68925 
 C                     21.86549   29.42756   32.45594 
 C                     24.12254   28.824    33.9449 
 C                     23.18539   29.80184   31.96712 
 C                     24.29195   29.51484   32.76524 
 C                     25.3201   29.11587   31.84074 
 C                     23.46516   29.61497   30.60028 
 C                     24.81447   29.2191   30.54714 
 
 Stoichiometry    C70
 Framework group  C1[X(C70)]
 Deg. of freedom   204
 Full point group                 C1      NOp   1
 Largest Abelian subgroup         C1      NOp   1
 Largest concise Abelian subgroup C1      NOp   1
                         Standard orientation:                         
 ---------------------------------------------------------------------
 Center     Atomic      Atomic             Coordinates (Angstroms)
 Number     Number       Type             X           Y           Z
 ---------------------------------------------------------------------
      1          6           0       -3.883824   -0.411359   -1.202060
      2          6           0       -4.002143    0.877857   -0.597705
      3          6           0       -3.922193    0.653412    0.795329
      4          6           0       -3.786236   -0.734862    1.040101
      5          6           0       -3.746826   -1.368814   -0.231930
      6          6           0       -3.310591    1.982522   -1.072293
      7          6           0       -2.639993    2.817513   -0.184410
      8          6           0       -2.573260    2.591219    1.173495
      9          6           0       -3.194886    1.465912    1.632590
     10          6           0       -2.383455    0.964920    2.691336
     11          6           0       -2.328045   -0.431920    2.973777
     12          6           0       -2.995034   -1.243963    2.084622
     13          6           0       -2.198544   -2.322733    1.909825
     14          6           0       -2.177500   -2.960201    0.641596
     15          6           0       -2.916038   -2.442703   -0.409074
     16          6           0       -2.185223   -2.557103   -1.516080
     17          6           0       -2.298015   -1.659386   -2.480370
     18          6           0       -3.154643   -0.560310   -2.352681
     19          6           0       -2.462338    0.572819   -2.924718
     20          6           0       -2.543677    1.820295   -2.250803
     21          6           0       -1.072294   -1.263469   -3.101585
     22          6           0       -1.210578    0.136387   -3.335793
     23          6           0       -1.412580    3.196203   -0.856600
     24          6           0       -1.377079    2.530779   -2.115170
     25          6           0       -0.984527   -3.222891   -1.182015
     26          6           0       -0.975823   -3.407191    0.161787
     27          6           0       -1.024222   -2.199375    2.638075
     28          6           0       -1.109195   -1.011287    3.230869
     29          6           0       -1.323683    1.851821    2.889227
     30          6           0       -1.407660    2.788241    1.915291
     31          6           0       -0.206835    3.242830    1.228126
     32          6           0       -0.196326    3.461490   -0.146829
     33          6           0       -0.146590    2.086583   -2.628982
     34          6           0       -0.066803    0.891173   -3.301025
     35          6           0        0.172215   -1.890082   -2.804771
     36          6           0        0.170289   -2.903838   -1.843472
     37          6           0        0.161601   -2.730098    2.193515
     38          6           0        0.189485   -3.302932    0.940395
     39          6           0       -0.092663    1.282523    3.267736
     40          6           0       -0.007793   -0.129814    3.422669
     41          6           0        1.008124    2.879175    1.827860
     42          6           0        1.059572    1.929152    2.853079
     43          6           0        1.038978    2.661619   -2.118860
     44          6           0        0.982496    3.334707   -0.894700
     45          6           0        1.180089    0.204969   -3.356271
     46          6           0        1.268704   -1.126062   -3.154069
     47          6           0        1.171469   -0.778357    3.155316
     48          6           0        1.328695   -2.050836    2.634048
     49          6           0        1.408663   -3.291606    0.219256
     50          6           0        1.393633   -3.095527   -1.188438
     51          6           0        2.540679   -2.406385   -1.527104
     52          6           0        2.497361   -1.405940   -2.515201
     53          6           0        2.277545    0.775079   -2.802304
     54          6           0        2.251411    2.025091   -2.263648
     55          6           0        2.246793    3.033204   -0.295764
     56          6           0        2.224887    2.776042    1.110518
     57          6           0        2.266199    1.250117    2.711366
     58          6           0        2.344926   -0.146545    2.870115
     59          6           0        2.568781   -2.739807    0.689513
     60          6           0        2.478179   -2.075405    1.904428
     61          6           0        2.998710    1.789687    1.667478
     62          6           0        3.178842   -0.905593    2.104573
     63          6           0        3.264126   -2.228547   -0.370256
     64          6           0        3.168271   -0.206225   -2.385947
     65          6           0        3.052973    2.263866   -1.136581
     66          6           0        3.914653    0.027105   -1.157262
     67          6           0        3.860937    1.295889   -0.581824
     68          6           0        3.824240    1.056362    0.836714
     69          6           0        3.923361   -0.988224   -0.182346
     70          6           0        3.900229   -0.317166    1.054317
 ---------------------------------------------------------------------
 Rotational constants (GHZ):           0.0715675           0.0616153           0.0614630
 Standard basis: 6-31+G (6D, 7F)
 There are   910 symmetry adapted cartesian basis functions of A   symmetry.
 There are   910 symmetry adapted basis functions of A   symmetry.
   910 basis functions,  1820 primitive gaussians,   910 cartesian basis functions
   210 alpha electrons      210 beta electrons
       nuclear repulsion energy     10914.5748602380 Hartrees.
 NAtoms=   70 NActive=   70 NUniq=   70 SFac= 1.00D+00 NAtFMM=   60 NAOKFM=T Big=T
 Integral buffers will be    131072 words long.
 Raffenetti 2 integral format.
 Two-electron integral symmetry is turned on.
 Nuclear repulsion after empirical dispersion term =    10914.4453329729 Hartrees.
 One-electron integrals computed using PRISM.
 NBasis=   910 RedAO= T EigKep=  1.19D-06  NBF=   910
 NBsUse=   833 1.00D-06 EigRej=  9.01D-07 NBFU=   833
 ExpMin= 4.38D-02 ExpMax= 3.05D+03 ExpMxC= 4.57D+02 IAcc=3 IRadAn=         5 AccDes= 0.00D+00
 Harris functional with IExCor= 4639 and IRadAn=       5 diagonalized for initial guess.
 HarFok:  IExCor= 4639 AccDes= 0.00D+00 IRadAn=         5 IDoV= 1 UseB2=F ITyADJ=14
 ICtDFT=  3500011 ScaDFX=  1.000000  1.000000  1.000000  1.000000
 FoFCou: FMM=F IPFlag=           0 FMFlag=      100000 FMFlg1=        2001
         NFxFlg=           0 DoJE=T BraDBF=F KetDBF=T FulRan=T
         wScrn=  0.000000 ICntrl=       500 IOpCl=  0 I1Cent=   200000004 NGrid=           0
         NMat0=    1 NMatS0=      1 NMatT0=    0 NMatD0=    1 NMtDS0=    0 NMtDT0=    0
 Petite list used in FoFCou.
 Requested convergence on RMS density matrix=1.00D-08 within 128 cycles.
 Requested convergence on MAX density matrix=1.00D-06.
 Requested convergence on             energy=1.00D-06.
 No special actions if energy rises.
 SCF Done:  E(RwB97XD) =  -2665.52745633     A.U. after   19 cycles
            NFock= 19  Conv=0.50D-08     -V/T= 2.0010
 SCF density gives NOpUse=  1 NOpAll=  1.

 **********************************************************************

            Population analysis using the SCF Density.

 **********************************************************************

 Orbital symmetries:
 BldTbl:  Degeneracy threshold= 1.00D-02
       Occupied  (A) (A) (A) (A) (A) (A) (A) (A) (A) (A) (A) (A)
                 (A) (A) (A) (A) (A) (A) (A) (A) (A) (A) (A) (A)
                 (A) (A) (A) (A) (A) (A) (A) (A) (A) (A) (A) (A)
                 (A) (A) (A) (A) (A) (A) (A) (A) (A) (A) (A) (A)
                 (A) (A) (A) (A) (A) (A) (A) (A) (A) (A) (A) (A)
                 (A) (A) (A) (A) (A) (A) (A) (A) (A) (A) (A) (A)
                 (A) (A) (A) (A) (A) (A) (A) (A) (A) (A) (A) (A)
                 (A) (A) (A) (A) (A) (A) (A) (A) (A) (A) (A) (A)
                 (A) (A) (A) (A) (A) (A) (A) (A) (A) (A) (A) (A)
                 (A) (A) (A) (A) (A) (A) (A) (A) (A) (A) (A) (A)
                 (A) (A) (A) (A) (A) (A) (A) (A) (A) (A) (A) (A)
                 (A) (A) (A) (A) (A) (A) (A) (A) (A) (A) (A) (A)
                 (A) (A) (A) (A) (A) (A) (A) (A) (A) (A) (A) (A)
                 (A) (A) (A) (A) (A) (A) (A) (A) (A) (A) (A) (A)
                 (A) (A) (A) (A) (A) (A) (A) (A) (A) (A) (A) (A)
                 (A) (A) (A) (A) (A) (A) (A) (A) (A) (A) (A) (A)
                 (A) (A) (A) (A) (A) (A) (A) (A) (A) (A) (A) (A)
                 (A) (A) (A) (A) (A) (A)
       Virtual   (A) (A) (A) (A) (A) (A) (A) (A) (A) (A) (A) (A)
                 (A) (A) (A) (A) (A) (A) (A) (A) (A) (A) (A) (A)
                 (A) (A) (A) (A) (A) (A) (A) (A) (A) (A) (A) (A)
                 (A) (A) (A) (A) (A) (A) (A) (A) (A) (A) (A) (A)
                 (A) (A) (A) (A) (A) (A) (A) (A) (A) (A) (A) (A)
                 (A) (A) (A) (A) (A) (A) (A) (A) (A) (A) (A) (A)
                 (A) (A) (A) (A) (A) (A) (A) (A) (A) (A) (A) (A)
                 (A) (A) (A) (A) (A) (A) (A) (A) (A) (A) (A) (A)
                 (A) (A) (A) (A) (A) (A) (A) (A) (A) (A) (A) (A)
                 (A) (A) (A) (A) (A) (A) (A) (A) (A) (A) (A) (A)
                 (A) (A) (A) (A) (A) (A) (A) (A) (A) (A) (A) (A)
                 (A) (A) (A) (A) (A) (A) (A) (A) (A) (A) (A) (A)
                 (A) (A) (A) (A) (A) (A) (A) (A) (A) (A) (A) (A)
                 (A) (A) (A) (A) (A) (A) (A) (A) (A) (A) (A) (A)
                 (A) (A) (A) (A) (A) (A) (A) (A) (A) (A) (A) (A)
                 (A) (A) (A) (A) (A) (A) (A) (A) (A) (A) (A) (A)
                 (A) (A) (A) (A) (A) (A) (A) (A) (A) (A) (A) (A)
                 (A) (A) (A) (A) (A) (A) (A) (A) (A) (A) (A) (A)
                 (A) (A) (A) (A) (A) (A) (A) (A) (A) (A) (A) (A)
                 (A) (A) (A) (A) (A) (A) (A) (A) (A) (A) (A) (A)
                 (A) (A) (A) (A) (A) (A) (A) (A) (A) (A) (A) (A)
                 (A) (A) (A) (A) (A) (A) (A) (A) (A) (A) (A) (A)
                 (A) (A) (A) (A) (A) (A) (A) (A) (A) (A) (A) (A)
                 (A) (A) (A) (A) (A) (A) (A) (A) (A) (A) (A) (A)
                 (A) (A) (A) (A) (A) (A) (A) (A) (A) (A) (A) (A)
                 (A) (A) (A) (A) (A) (A) (A) (A) (A) (A) (A) (A)
                 (A) (A) (A) (A) (A) (A) (A) (A) (A) (A) (A) (A)
                 (A) (A) (A) (A) (A) (A) (A) (A) (A) (A) (A) (A)
                 (A) (A) (A) (A) (A) (A) (A) (A) (A) (A) (A) (A)
                 (A) (A) (A) (A) (A) (A) (A) (A) (A) (A) (A) (A)
                 (A) (A) (A) (A) (A) (A) (A) (A) (A) (A) (A) (A)
                 (A) (A) (A) (A) (A) (A) (A) (A) (A) (A) (A) (A)
                 (A) (A) (A) (A) (A) (A) (A) (A) (A) (A) (A) (A)
                 (A) (A) (A) (A) (A) (A) (A) (A) (A) (A) (A) (A)
                 (A) (A) (A) (A) (A) (A) (A) (A) (A) (A) (A) (A)
                 (A) (A) (A) (A) (A) (A) (A) (A) (A) (A) (A) (A)
                 (A) (A) (A) (A) (A) (A) (A) (A) (A) (A) (A) (A)
                 (A) (A) (A) (A) (A) (A) (A) (A) (A) (A) (A) (A)
                 (A) (A) (A) (A) (A) (A) (A) (A) (A) (A) (A) (A)
                 (A) (A) (A) (A) (A) (A) (A) (A) (A) (A) (A) (A)
                 (A) (A) (A) (A) (A) (A) (A) (A) (A) (A) (A) (A)
                 (A) (A) (A) (A) (A) (A) (A) (A) (A) (A) (A) (A)
                 (A) (A) (A) (A) (A) (A) (A) (A) (A) (A) (A) (A)
                 (A) (A) (A) (A) (A) (A) (A) (A) (A) (A) (A) (A)
                 (A) (A) (A) (A) (A) (A) (A) (A) (A) (A) (A) (A)
                 (A) (A) (A) (A) (A) (A) (A) (A) (A) (A) (A) (A)
                 (A) (A) (A) (A) (A) (A) (A) (A) (A) (A) (A) (A)
                 (A) (A) (A) (A) (A) (A) (A) (A) (A) (A) (A) (A)
                 (A) (A) (A) (A) (A) (A) (A) (A) (A) (A) (A) (A)
                 (A) (A) (A) (A) (A) (A) (A) (A) (A) (A) (A) (A)
                 (A) (A) (A) (A) (A) (A) (A) (A) (A) (A) (A) (A)
                 (A) (A) (A) (A) (A) (A) (A) (A) (A) (A) (A)
 The electronic state is 1-A.
 Alpha  occ. eigenvalues --  -10.36134 -10.35960 -10.35861 -10.35809 -10.35755
 Alpha  occ. eigenvalues --  -10.35539 -10.35466 -10.35404 -10.35394 -10.35352
 Alpha  occ. eigenvalues --  -10.35344 -10.35324 -10.35288 -10.35252 -10.35237
 Alpha  occ. eigenvalues --  -10.35230 -10.35211 -10.35197 -10.35175 -10.35158
 Alpha  occ. eigenvalues --  -10.35152 -10.35133 -10.35093 -10.35080 -10.35044
 Alpha  occ. eigenvalues --  -10.34961 -10.34933 -10.34930 -10.34854 -10.34812
 Alpha  occ. eigenvalues --  -10.34796 -10.34755 -10.34610 -10.34508 -10.34485
 Alpha  occ. eigenvalues --  -10.34463 -10.34409 -10.34402 -10.34392 -10.34346
 Alpha  occ. eigenvalues --  -10.34344 -10.34341 -10.34296 -10.34294 -10.34276
 Alpha  occ. eigenvalues --  -10.34247 -10.34105 -10.34099 -10.34062 -10.34043
 Alpha  occ. eigenvalues --  -10.34019 -10.33958 -10.33935 -10.33922 -10.33904
 Alpha  occ. eigenvalues --  -10.33887 -10.33866 -10.33838 -10.33828 -10.33800
 Alpha  occ. eigenvalues --  -10.33743 -10.33681 -10.33672 -10.33618 -10.33541
 Alpha  occ. eigenvalues --  -10.33364 -10.33364 -10.33188 -10.33187 -10.32950
 Alpha  occ. eigenvalues --   -1.12765  -1.11450  -1.10836  -1.10490  -1.08554
 Alpha  occ. eigenvalues --   -1.08327  -1.07315  -1.06959  -1.06408  -1.04660
 Alpha  occ. eigenvalues --   -1.04331  -1.03563  -1.00854  -1.00716  -1.00230
 Alpha  occ. eigenvalues --   -0.99948  -0.98008  -0.95392  -0.94978  -0.94891
 Alpha  occ. eigenvalues --   -0.94640  -0.94265  -0.94144  -0.92937  -0.92758
 Alpha  occ. eigenvalues --   -0.88809  -0.88669  -0.88497  -0.87626  -0.87516
 Alpha  occ. eigenvalues --   -0.87130  -0.86785  -0.86502  -0.85995  -0.85125
 Alpha  occ. eigenvalues --   -0.83410  -0.80463  -0.80458  -0.79640  -0.79227
 Alpha  occ. eigenvalues --   -0.78854  -0.78521  -0.78102  -0.77952  -0.76063
 Alpha  occ. eigenvalues --   -0.75712  -0.75449  -0.74637  -0.74321  -0.70974
 Alpha  occ. eigenvalues --   -0.70845  -0.70260  -0.70171  -0.69151  -0.68906
 Alpha  occ. eigenvalues --   -0.68855  -0.68706  -0.68240  -0.66183  -0.65974
 Alpha  occ. eigenvalues --   -0.65457  -0.64997  -0.64662  -0.64103  -0.61755
 Alpha  occ. eigenvalues --   -0.61392  -0.61214  -0.60940  -0.60633  -0.60064
 Alpha  occ. eigenvalues --   -0.59928  -0.59440  -0.59264  -0.58996  -0.58910
 Alpha  occ. eigenvalues --   -0.58628  -0.58366  -0.58068  -0.57729  -0.57537
 Alpha  occ. eigenvalues --   -0.56872  -0.56759  -0.56335  -0.55387  -0.55288
 Alpha  occ. eigenvalues --   -0.54976  -0.54715  -0.54658  -0.54193  -0.53784
 Alpha  occ. eigenvalues --   -0.53655  -0.53525  -0.53320  -0.53122  -0.52893
 Alpha  occ. eigenvalues --   -0.52682  -0.52441  -0.51815  -0.51543  -0.51471
 Alpha  occ. eigenvalues --   -0.50091  -0.49751  -0.49672  -0.49490  -0.49258
 Alpha  occ. eigenvalues --   -0.48901  -0.48578  -0.48014  -0.47952  -0.46879
 Alpha  occ. eigenvalues --   -0.46176  -0.46052  -0.45866  -0.45629  -0.45398
 Alpha  occ. eigenvalues --   -0.45138  -0.45066  -0.44733  -0.44690  -0.44354
 Alpha  occ. eigenvalues --   -0.43530  -0.42340  -0.40738  -0.40168  -0.39801
 Alpha  occ. eigenvalues --   -0.39785  -0.38960  -0.38619  -0.36870  -0.36574
 Alpha  occ. eigenvalues --   -0.33140  -0.33049  -0.32369  -0.32164  -0.31708
 Alpha  occ. eigenvalues --   -0.31575  -0.30291  -0.29676  -0.29240  -0.28937
 Alpha virt. eigenvalues --   -0.09231  -0.08910  -0.08820  -0.06379  -0.04678
 Alpha virt. eigenvalues --   -0.04186   0.01180   0.02022   0.02108   0.02311
 Alpha virt. eigenvalues --    0.03410   0.03764   0.04039   0.04433   0.04557
 Alpha virt. eigenvalues --    0.04886   0.06576   0.06939   0.07085   0.07477
 Alpha virt. eigenvalues --    0.07599   0.07784   0.08119   0.08476   0.08768
 Alpha virt. eigenvalues --    0.09047   0.09140   0.09266   0.09386   0.10534
 Alpha virt. eigenvalues --    0.10772   0.10786   0.10845   0.10958   0.10965
 Alpha virt. eigenvalues --    0.11057   0.11126   0.11349   0.11650   0.12010
 Alpha virt. eigenvalues --    0.12507   0.12612   0.12744   0.12800   0.12834
 Alpha virt. eigenvalues --    0.12948   0.12981   0.13207   0.13223   0.14391
 Alpha virt. eigenvalues --    0.14493   0.14775   0.14823   0.14913   0.15283
 Alpha virt. eigenvalues --    0.15294   0.15338   0.15347   0.15391   0.15466
 Alpha virt. eigenvalues --    0.15523   0.15599   0.15660   0.15751   0.15826
 Alpha virt. eigenvalues --    0.16052   0.17400   0.17645   0.17938   0.18111
 Alpha virt. eigenvalues --    0.18191   0.18213   0.18262   0.18312   0.18392
 Alpha virt. eigenvalues --    0.18453   0.18553   0.18702   0.18794   0.18936
 Alpha virt. eigenvalues --    0.19031   0.19127   0.19627   0.19668   0.20010
 Alpha virt. eigenvalues --    0.20083   0.20377   0.21382   0.21633   0.21689
 Alpha virt. eigenvalues --    0.21842   0.21887   0.22146   0.22168   0.22271
 Alpha virt. eigenvalues --    0.22515   0.22620   0.22883   0.23048   0.23294
 Alpha virt. eigenvalues --    0.23335   0.23469   0.23672   0.23726   0.23913
 Alpha virt. eigenvalues --    0.24116   0.24324   0.24547   0.24634   0.25087
 Alpha virt. eigenvalues --    0.25333   0.25762   0.25779   0.26120   0.26266
 Alpha virt. eigenvalues --    0.26401   0.26596   0.26829   0.26883   0.26911
 Alpha virt. eigenvalues --    0.27001   0.27235   0.27447   0.27573   0.27838
 Alpha virt. eigenvalues --    0.27863   0.27977   0.28243   0.28448   0.28628
 Alpha virt. eigenvalues --    0.28679   0.28768   0.28896   0.29004   0.29162
 Alpha virt. eigenvalues --    0.29260   0.29354   0.29480   0.29596   0.29712
 Alpha virt. eigenvalues --    0.29939   0.30122   0.30363   0.30695   0.30735
 Alpha virt. eigenvalues --    0.30850   0.31121   0.31344   0.31445   0.31911
 Alpha virt. eigenvalues --    0.31918   0.32049   0.32170   0.32293   0.32376
 Alpha virt. eigenvalues --    0.32490   0.32509   0.32667   0.32763   0.32926
 Alpha virt. eigenvalues --    0.33030   0.33148   0.33300   0.33439   0.33504
 Alpha virt. eigenvalues --    0.33693   0.33808   0.33875   0.34045   0.34117
 Alpha virt. eigenvalues --    0.34439   0.34607   0.34776   0.34806   0.34871
 Alpha virt. eigenvalues --    0.34933   0.34966   0.34971   0.35052   0.35098
 Alpha virt. eigenvalues --    0.35204   0.35313   0.35430   0.35464   0.35504
 Alpha virt. eigenvalues --    0.35513   0.35571   0.35699   0.35832   0.35972
 Alpha virt. eigenvalues --    0.36046   0.36070   0.36236   0.36253   0.36345
 Alpha virt. eigenvalues --    0.36382   0.36458   0.36488   0.36673   0.36757
 Alpha virt. eigenvalues --    0.36841   0.37040   0.37200   0.37299   0.37333
 Alpha virt. eigenvalues --    0.37462   0.37538   0.37699   0.37801   0.37923
 Alpha virt. eigenvalues --    0.38034   0.38273   0.38484   0.38675   0.38835
 Alpha virt. eigenvalues --    0.39164   0.39320   0.39381   0.39507   0.39641
 Alpha virt. eigenvalues --    0.39701   0.39828   0.39992   0.40118   0.40181
 Alpha virt. eigenvalues --    0.40265   0.40346   0.40447   0.40574   0.40608
 Alpha virt. eigenvalues --    0.40673   0.40738   0.40784   0.40863   0.40983
 Alpha virt. eigenvalues --    0.40999   0.41098   0.41168   0.41234   0.41315
 Alpha virt. eigenvalues --    0.41453   0.41566   0.41600   0.41883   0.41927
 Alpha virt. eigenvalues --    0.42278   0.42335   0.42695   0.42842   0.43007
 Alpha virt. eigenvalues --    0.43084   0.43218   0.43664   0.43763   0.43963
 Alpha virt. eigenvalues --    0.44013   0.44248   0.44413   0.44491   0.44536
 Alpha virt. eigenvalues --    0.44701   0.44850   0.44926   0.45071   0.45194
 Alpha virt. eigenvalues --    0.45260   0.45357   0.45378   0.45525   0.45594
 Alpha virt. eigenvalues --    0.45672   0.45728   0.46013   0.46080   0.46228
 Alpha virt. eigenvalues --    0.46573   0.46977   0.47340   0.47501   0.47719
 Alpha virt. eigenvalues --    0.47823   0.48533   0.49055   0.49939   0.49992
 Alpha virt. eigenvalues --    0.50486   0.51763   0.52307   0.52677   0.53340
 Alpha virt. eigenvalues --    0.53663   0.54526   0.55043   0.55176   0.55584
 Alpha virt. eigenvalues --    0.56840   0.57357   0.58252   0.58777   0.58942
 Alpha virt. eigenvalues --    0.59013   0.60430   0.60722   0.61452   0.61698
 Alpha virt. eigenvalues --    0.62464   0.62550   0.63238   0.63829   0.64340
 Alpha virt. eigenvalues --    0.64462   0.64954   0.65566   0.65969   0.66339
 Alpha virt. eigenvalues --    0.66486   0.66834   0.67099   0.67581   0.68057
 Alpha virt. eigenvalues --    0.68382   0.68688   0.69342   0.69733   0.70254
 Alpha virt. eigenvalues --    0.70800   0.71188   0.71433   0.71653   0.71677
 Alpha virt. eigenvalues --    0.72103   0.72557   0.72953   0.73385   0.73604
 Alpha virt. eigenvalues --    0.73863   0.74102   0.74476   0.74683   0.75095
 Alpha virt. eigenvalues --    0.75543   0.76197   0.76811   0.77043   0.77403
 Alpha virt. eigenvalues --    0.78202   0.78722   0.78961   0.79097   0.79470
 Alpha virt. eigenvalues --    0.80028   0.80244   0.80392   0.80985   0.81231
 Alpha virt. eigenvalues --    0.81528   0.81820   0.82105   0.82155   0.82372
 Alpha virt. eigenvalues --    0.82892   0.83018   0.83177   0.83492   0.83923
 Alpha virt. eigenvalues --    0.84362   0.84814   0.85154   0.85288   0.85693
 Alpha virt. eigenvalues --    0.86351   0.87035   0.87125   0.87179   0.87395
 Alpha virt. eigenvalues --    0.87561   0.87851   0.88540   0.88676   0.88918
 Alpha virt. eigenvalues --    0.89415   0.89582   0.89628   0.89808   0.89962
 Alpha virt. eigenvalues --    0.90436   0.91006   0.91884   0.92649   0.92880
 Alpha virt. eigenvalues --    0.93229   0.93399   0.93517   0.93572   0.93934
 Alpha virt. eigenvalues --    0.94120   0.94442   0.94489   0.94644   0.94873
 Alpha virt. eigenvalues --    0.95199   0.95653   0.95919   0.96234   0.96708
 Alpha virt. eigenvalues --    0.96993   0.97244   0.97664   0.97848   0.97900
 Alpha virt. eigenvalues --    0.98288   0.98497   0.98794   0.98827   0.98967
 Alpha virt. eigenvalues --    0.99079   0.99269   0.99597   0.99864   1.00119
 Alpha virt. eigenvalues --    1.00211   1.00428   1.00646   1.00977   1.01084
 Alpha virt. eigenvalues --    1.01342   1.01496   1.01870   1.02114   1.02268
 Alpha virt. eigenvalues --    1.02408   1.02574   1.02741   1.02786   1.03225
 Alpha virt. eigenvalues --    1.03288   1.03412   1.03553   1.03830   1.03970
 Alpha virt. eigenvalues --    1.04137   1.04384   1.04654   1.04808   1.04859
 Alpha virt. eigenvalues --    1.04908   1.05112   1.05178   1.05564   1.05865
 Alpha virt. eigenvalues --    1.05977   1.06436   1.06667   1.06790   1.07042
 Alpha virt. eigenvalues --    1.07580   1.07641   1.07970   1.08108   1.08321
 Alpha virt. eigenvalues --    1.08609   1.08725   1.09015   1.09192   1.09287
 Alpha virt. eigenvalues --    1.09683   1.10068   1.10178   1.10627   1.10770
 Alpha virt. eigenvalues --    1.11337   1.11393   1.11704   1.11764   1.12024
 Alpha virt. eigenvalues --    1.12272   1.12641   1.12682   1.13771   1.14346
 Alpha virt. eigenvalues --    1.15498   1.17515   1.18394   1.18790   1.19510
 Alpha virt. eigenvalues --    1.19885   1.20051   1.20554   1.20966   1.21142
 Alpha virt. eigenvalues --    1.21475   1.21576   1.21917   1.22410   1.22782
 Alpha virt. eigenvalues --    1.23338   1.23388   1.23584   1.23726   1.24069
 Alpha virt. eigenvalues --    1.24310   1.24454   1.25167   1.25205   1.25396
 Alpha virt. eigenvalues --    1.25723   1.26205   1.26481   1.26558   1.26963
 Alpha virt. eigenvalues --    1.27336   1.27604   1.27896   1.28000   1.28753
 Alpha virt. eigenvalues --    1.28865   1.29487   1.29900   1.30486   1.30578
 Alpha virt. eigenvalues --    1.30810   1.31215   1.31368   1.31549   1.32166
 Alpha virt. eigenvalues --    1.32508   1.32703   1.33083   1.33689   1.34256
 Alpha virt. eigenvalues --    1.34527   1.34694   1.34786   1.35254   1.35885
 Alpha virt. eigenvalues --    1.36366   1.36638   1.36934   1.37408   1.37801
 Alpha virt. eigenvalues --    1.38155   1.38607   1.39036   1.39118   1.39429
 Alpha virt. eigenvalues --    1.39726   1.40171   1.40435   1.40698   1.40977
 Alpha virt. eigenvalues --    1.41090   1.41698   1.42000   1.42168   1.42659
 Alpha virt. eigenvalues --    1.42987   1.43630   1.43713   1.44896   1.45198
 Alpha virt. eigenvalues --    1.45757   1.46125   1.46274   1.46734   1.46920
 Alpha virt. eigenvalues --    1.47315   1.48199   1.48456   1.48592   1.49151
 Alpha virt. eigenvalues --    1.49557   1.50334   1.50795   1.50937   1.51792
 Alpha virt. eigenvalues --    1.51910   1.53688   1.53737   1.53993   1.54669
 Alpha virt. eigenvalues --    1.55973   1.56565   1.58342   1.59420   1.59529
 Alpha virt. eigenvalues --    1.59943   1.61223   1.62054   1.62955   1.63361
 Alpha virt. eigenvalues --    1.63547   1.65024   1.67048   1.67864   1.69053
 Alpha virt. eigenvalues --    1.69941   1.72679   1.74430   1.75346   1.76545
 Alpha virt. eigenvalues --    1.87718   1.88273   1.90227   1.92415   1.95267
 Alpha virt. eigenvalues --    1.96065   2.06746   2.08220   2.09918   2.17512
 Alpha virt. eigenvalues --    2.21187   2.31646   2.32496   2.33696   2.36646
 Alpha virt. eigenvalues --    2.40014   2.56752   2.59782   2.64632   2.75752
 Alpha virt. eigenvalues --    2.77096   2.84935   2.94228
          Condensed to atoms (all electrons):
 Mulliken charges:
               1
     1  C   -0.002972
     2  C    0.360840
     3  C    0.476181
     4  C    0.180314
     5  C    0.050569
     6  C    0.029338
     7  C    0.195133
     8  C   -0.118894
     9  C    0.128348
    10  C   -0.132725
    11  C    0.187366
    12  C   -0.138824
    13  C   -0.158205
    14  C   -0.027804
    15  C   -0.313214
    16  C   -0.127537
    17  C    0.217511
    18  C   -0.414201
    19  C    0.249661
    20  C    0.186016
    21  C   -0.020593
    22  C   -0.074284
    23  C   -0.426044
    24  C    0.138040
    25  C    0.080355
    26  C   -0.159081
    27  C   -0.072045
    28  C   -0.176471
    29  C   -0.169447
    30  C   -0.145580
    31  C   -0.247823
    32  C   -0.123498
    33  C   -0.346651
    34  C    0.275718
    35  C    0.125964
    36  C    0.244078
    37  C    0.355063
    38  C    0.164988
    39  C   -0.085042
    40  C    0.385119
    41  C   -0.163582
    42  C   -0.227056
    43  C   -0.280035
    44  C    0.010787
    45  C   -0.275507
    46  C   -0.129299
    47  C   -0.207798
    48  C    0.085190
    49  C    0.249913
    50  C   -0.355305
    51  C    0.065970
    52  C   -0.046286
    53  C   -0.369945
    54  C    0.297540
    55  C    0.182706
    56  C    0.057222
    57  C    0.193484
    58  C   -0.247434
    59  C    0.230826
    60  C   -0.063205
    61  C   -0.148870
    62  C   -0.076087
    63  C    0.022303
    64  C    0.269944
    65  C   -0.103784
    66  C   -0.036096
    67  C    0.146443
    68  C    0.212670
    69  C    0.102708
    70  C    0.052917
 Sum of Mulliken charges =  -0.00000
 Mulliken charges with hydrogens summed into heavy atoms:
               1
     1  C   -0.002972
     2  C    0.360840
     3  C    0.476181
     4  C    0.180314
     5  C    0.050569
     6  C    0.029338
     7  C    0.195133
     8  C   -0.118894
     9  C    0.128348
    10  C   -0.132725
    11  C    0.187366
    12  C   -0.138824
    13  C   -0.158205
    14  C   -0.027804
    15  C   -0.313214
    16  C   -0.127537
    17  C    0.217511
    18  C   -0.414201
    19  C    0.249661
    20  C    0.186016
    21  C   -0.020593
    22  C   -0.074284
    23  C   -0.426044
    24  C    0.138040
    25  C    0.080355
    26  C   -0.159081
    27  C   -0.072045
    28  C   -0.176471
    29  C   -0.169447
    30  C   -0.145580
    31  C   -0.247823
    32  C   -0.123498
    33  C   -0.346651
    34  C    0.275718
    35  C    0.125964
    36  C    0.244078
    37  C    0.355063
    38  C    0.164988
    39  C   -0.085042
    40  C    0.385119
    41  C   -0.163582
    42  C   -0.227056
    43  C   -0.280035
    44  C    0.010787
    45  C   -0.275507
    46  C   -0.129299
    47  C   -0.207798
    48  C    0.085190
    49  C    0.249913
    50  C   -0.355305
    51  C    0.065970
    52  C   -0.046286
    53  C   -0.369945
    54  C    0.297540
    55  C    0.182706
    56  C    0.057222
    57  C    0.193484
    58  C   -0.247434
    59  C    0.230826
    60  C   -0.063205
    61  C   -0.148870
    62  C   -0.076087
    63  C    0.022303
    64  C    0.269944
    65  C   -0.103784
    66  C   -0.036096
    67  C    0.146443
    68  C    0.212670
    69  C    0.102708
    70  C    0.052917
 DipInt: DoE/N= T F RetVal/Mat= T F Init=T NMatP=  1 IDeriv=0 Min/MaxMlt=  0  4
 Entering OneElI...
 OneElI was handed 13419680525 working-precision words.
 Multipole integrals L=0 to 4 MinM= 0 MaxM= 0.
 Requested accuracy = 0.1000D-12
 ShPair: Thresh= 1.00D-13 NBox=     0 BxSize= 0.00D+00 RnKept= 1.54D+01
         NSMCal=                39340 NSMKep=               33470
 PrmmSu-InSpLW:  IPartL=    0 NPrtUS=    1 NPrtUL=    1 DoSpLW=F IThBeg=    0 IThEnd=    0 NThAct=    1.
 PrSmSu:  IncTry=   512 NBBP=          33470 NTPThr=   100 NPartT=    1 Incr=         334 LDynOK=F GPUOK=F.
 PrsmSu:  NPrtUS=   1 ThrOK=F IAlg=2 LenDen=           0 ISkipM=0 DoSpLW=F IThBeg=    0 IThEnd=    0.
 Prism:   IPart=     0 DynPar=F LinDyn=F Incr=         334.
 PRISM was handed 13416506543 working-precision words and 33470 shell-pairs
 IPart=  0 NShTot=       33470 NBatch=         224 AvBLen=       149.4
 PrsmSu-ThDecC:  IPartSL=    0    0 NPrtUSL=    1    1 IThBeg=    0 IThEnd=    0 CPU=   -1 GPU=   -1 NThAct=    1.
 PrSmSu:  NxtVal=            335.
 Electronic moments (au):
       -420.00000000         -0.06578047          0.04117542          0.04371130
      -8649.22015654      -6612.82938260      -6575.78423431         -0.35008042
          0.89185259         -0.05273433       -117.95893264        -96.62615741
       -171.61256018        -32.26190656       -351.19003912        592.74602687
        125.68275618       -125.80824485       -186.19917438         28.81626612
    -335380.09561019    -194791.45209031    -191904.78824304        906.22965919
      -1407.19373117         95.80804096       -191.22479175        720.16352734
       -395.23976849     -89801.35879260     -88936.69341847     -65065.46346806
        340.75639893        580.05881735       -157.17775389
 Electronic spatial extent (au):  <R**2>=          21837.8338
 DipInt: DoE/N= F T RetVal/Mat= T F Init=T NMatP=  1 IDeriv=0 Min/MaxMlt=  0  4
 Nuclear    moments (au):
        420.00000000         -0.00000000          0.00000000          0.00000000
       8359.03875363       6322.47656838       6286.19116489          0.00000000
         -0.00000000         -0.00000000        112.32585663         84.09108571
        177.49651761         29.62799711        352.00615570       -594.11719032
       -125.30449105        122.79502613        188.97215008        -31.96298166
     299727.81201971     167520.75945710     164904.91221334       -903.85190413
       1472.20890297        -94.92497031        194.45532982       -707.29322406
        372.77183678      79292.76421119      78425.82481107      56038.70518433
       -343.13541538       -575.55423469        167.02455793
 Total      moments (au):
         -0.00000000         -0.06578047          0.04117542          0.04371130
       -290.18140291       -290.35281422       -289.59306941         -0.35008042
          0.89185259         -0.05273433         -5.63307601        -12.53507170
          5.88395742         -2.63390945          0.81611657         -1.37116344
          0.37826513         -3.01321872          2.77297570         -3.14671554
     -35652.28359048     -27270.69263321     -26999.87602970          2.37775506
         65.01517180          0.88307065          3.23053807         12.87030328
        -22.46793172     -10508.59458141     -10510.86860740      -9026.75828372
         -2.37901645          4.50458266          9.84680404
 Traceless Quadrup. (au):
         -0.13897406         -0.31038537          0.44935943         -0.35008042
          0.89185259         -0.05273433
 Charge=             -0.0000 electrons
 Dipole moment (field-independent basis, Debye):
    X=             -0.1672    Y=              0.1047    Z=              0.1111  Tot=              0.2264
 Quadrupole moment (field-independent basis, Debye-Ang):
   XX=           -390.3039   YY=           -390.5345   ZZ=           -389.5126
   XY=             -0.4709   XZ=              1.1996   YZ=             -0.0709
 Traceless Quadrupole moment (field-independent basis, Debye-Ang):
   XX=             -0.1869   YY=             -0.4175   ZZ=              0.6044
   XY=             -0.4709   XZ=              1.1996   YZ=             -0.0709
 Octapole moment (field-independent basis, Debye-Ang**2):
  XXX=             -4.0094  YYY=             -8.9220  ZZZ=              4.1880  XYY=             -1.8747
  XXY=              0.5809  XXZ=             -0.9759  XZZ=              0.2692  YZZ=             -2.1447
  YYZ=              1.9737  XYZ=             -2.2397
 Hexadecapole moment (field-independent basis, Debye-Ang**3):
 XXXX=         -13428.3596 YYYY=         -10271.4505 ZZZZ=         -10169.4480 XXXY=              0.8956
 XXXZ=             24.4878 YYYX=              0.3326 YYYZ=              1.2168 ZZZX=              4.8476
 ZZZY=             -8.4625 XXYY=          -3958.0406 XXZZ=          -3958.8971 YYZZ=          -3399.9100
 XXYZ=             -0.8961 YYXZ=              1.6966 ZZXY=              3.7088
 N-N= 1.091444533297D+04 E-N=-2.800951142182D+04  KE= 2.662824143455D+03
 Entering OneElI...
 OneElI was handed 13420092300 working-precision words.
 Calculate electrostatic properties
    NBasis =   910  MinDer = 0  MaxDer = 0
    NGrid  =    70  NMatD  =   1
 Requested accuracy = 0.1000D-12
 ShPair: Thresh= 1.00D-13 NBox=     0 BxSize= 0.00D+00 RnKept= 1.54D+01
         NSMCal=                39340 NSMKep=               31748
 PrmmSu-InSpLW:  IPartL=    0 NPrtUS=   40 NPrtUL=    1 DoSpLW=F IThBeg=    0 IThEnd=   39 NThAct=   40.
 PrSmSu:  IncTry=   512 NBBP=        2222360 NTPThr=   100 NPartT=   40 Incr=         512 LDynOK=F GPUOK=F.
 PrsmSu:  NPrtUS=  40 ThrOK=T IAlg=2 LenDen=           0 ISkipM=0 DoSpLW=F IThBeg=    0 IThEnd=   39.
 Prism:   IPart=     0 DynPar=F LinDyn=F Incr=         512.
 PRISM was handed   334375916 working-precision words and 31748 shell-pairs
 PRISM was handed   334375916 working-precision words and 31748 shell-pairs
 PRISM was handed   334375916 working-precision words and 31748 shell-pairs
 PRISM was handed   334375916 working-precision words and 31748 shell-pairs
 PRISM was handed   334375916 working-precision words and 31748 shell-pairs
 PRISM was handed   334375916 working-precision words and 31748 shell-pairs
 PRISM was handed   334375916 working-precision words and 31748 shell-pairs
 PRISM was handed   334375916 working-precision words and 31748 shell-pairs
 PRISM was handed   334375916 working-precision words and 31748 shell-pairs
 PRISM was handed   334375916 working-precision words and 31748 shell-pairs
 PRISM was handed   334375916 working-precision words and 31748 shell-pairs
 PRISM was handed   334375916 working-precision words and 31748 shell-pairs
 PRISM was handed   334375916 working-precision words and 31748 shell-pairs
 PRISM was handed   334375916 working-precision words and 31748 shell-pairs
 PRISM was handed   334375916 working-precision words and 31748 shell-pairs
 PRISM was handed   334375916 working-precision words and 31748 shell-pairs
 PRISM was handed   334375916 working-precision words and 31748 shell-pairs
 PRISM was handed   334375916 working-precision words and 31748 shell-pairs
 PRISM was handed   334375916 working-precision words and 31748 shell-pairs
 PRISM was handed   334375916 working-precision words and 31748 shell-pairs
 PRISM was handed   334375916 working-precision words and 31748 shell-pairs
 PRISM was handed   334375916 working-precision words and 31748 shell-pairs
 PRISM was handed   334375916 working-precision words and 31748 shell-pairs
 PRISM was handed   334375916 working-precision words and 31748 shell-pairs
 PRISM was handed   334375916 working-precision words and 31748 shell-pairs
 PRISM was handed   334375916 working-precision words and 31748 shell-pairs
 PRISM was handed   334375916 working-precision words and 31748 shell-pairs
 PRISM was handed   334375916 working-precision words and 31748 shell-pairs
 PRISM was handed   334375916 working-precision words and 31748 shell-pairs
 PRISM was handed   334375916 working-precision words and 31748 shell-pairs
 PRISM was handed   334375916 working-precision words and 31748 shell-pairs
 PRISM was handed   334375916 working-precision words and 31748 shell-pairs
 PRISM was handed   334375916 working-precision words and 31748 shell-pairs
 PRISM was handed   334375916 working-precision words and 31748 shell-pairs
 PRISM was handed   334375916 working-precision words and 31748 shell-pairs
 PRISM was handed   334375916 working-precision words and 31748 shell-pairs
 PRISM was handed   334375916 working-precision words and 31748 shell-pairs
 PRISM was handed   334375916 working-precision words and 31748 shell-pairs
 PRISM was handed   334375916 working-precision words and 31748 shell-pairs
 PRISM was handed   334375916 working-precision words and 31748 shell-pairs
 IPart= 32 NShTot=       54880 NBatch=         784 AvBLen=        70.0
 PrsmSu-ThDecC:  IPartSL=   32    0 NPrtUSL=   40    1 IThBeg=    0 IThEnd=   39 CPU=   -1 GPU=   -1 NThAct=   40.
 IPart=  0 NShTot=       56280 NBatch=         804 AvBLen=        70.0
 PrsmSu-ThDecC:  IPartSL=    0    0 NPrtUSL=   40    1 IThBeg=    0 IThEnd=   39 CPU=   -1 GPU=   -1 NThAct=   39.
 IPart= 24 NShTot=       55300 NBatch=         790 AvBLen=        70.0
 PrsmSu-ThDecC:  IPartSL=   24    0 NPrtUSL=   40    1 IThBeg=    0 IThEnd=   39 CPU=   -1 GPU=   -1 NThAct=   38.
 IPart= 10 NShTot=       56000 NBatch=         800 AvBLen=        70.0
 PrsmSu-ThDecC:  IPartSL=   10    0 NPrtUSL=   40    1 IThBeg=    0 IThEnd=   39 CPU=   -1 GPU=   -1 NThAct=   37.
 IPart= 39 NShTot=       54740 NBatch=         782 AvBLen=        70.0
 PrsmSu-ThDecC:  IPartSL=   39    0 NPrtUSL=   40    1 IThBeg=    0 IThEnd=   39 CPU=   -1 GPU=   -1 NThAct=   36.
 IPart= 35 NShTot=       54880 NBatch=         784 AvBLen=        70.0
 PrsmSu-ThDecC:  IPartSL=   35    0 NPrtUSL=   40    1 IThBeg=    0 IThEnd=   39 CPU=   -1 GPU=   -1 NThAct=   35.
 IPart= 36 NShTot=       54880 NBatch=         784 AvBLen=        70.0
 PrsmSu-ThDecC:  IPartSL=   36    0 NPrtUSL=   40    1 IThBeg=    0 IThEnd=   39 CPU=   -1 GPU=   -1 NThAct=   34.
 IPart= 22 NShTot=       55370 NBatch=         791 AvBLen=        70.0
 PrsmSu-ThDecC:  IPartSL=   22    0 NPrtUSL=   40    1 IThBeg=    0 IThEnd=   39 CPU=   -1 GPU=   -1 NThAct=   33.
 IPart= 16 NShTot=       55720 NBatch=         796 AvBLen=        70.0
 PrsmSu-ThDecC:  IPartSL=   16    0 NPrtUSL=   40    1 IThBeg=    0 IThEnd=   39 CPU=   -1 GPU=   -1 NThAct=   32.
 IPart=  8 NShTot=       56070 NBatch=         801 AvBLen=        70.0
 PrsmSu-ThDecC:  IPartSL=    8    0 NPrtUSL=   40    1 IThBeg=    0 IThEnd=   39 CPU=   -1 GPU=   -1 NThAct=   31.
 IPart=  2 NShTot=       56280 NBatch=         804 AvBLen=        70.0
 PrsmSu-ThDecC:  IPartSL=    2    0 NPrtUSL=   40    1 IThBeg=    0 IThEnd=   39 CPU=   -1 GPU=   -1 NThAct=   30.
 IPart= 12 NShTot=       55930 NBatch=         799 AvBLen=        70.0
 PrsmSu-ThDecC:  IPartSL=   12    0 NPrtUSL=   40    1 IThBeg=    0 IThEnd=   39 CPU=   -1 GPU=   -1 NThAct=   29.
 IPart= 37 NShTot=       54810 NBatch=         783 AvBLen=        70.0
 PrsmSu-ThDecC:  IPartSL=   37    0 NPrtUSL=   40    1 IThBeg=    0 IThEnd=   39 CPU=   -1 GPU=   -1 NThAct=   28.
 IPart= 29 NShTot=       55230 NBatch=         789 AvBLen=        70.0
 PrsmSu-ThDecC:  IPartSL=   29    0 NPrtUSL=   40    1 IThBeg=    0 IThEnd=   39 CPU=   -1 GPU=   -1 NThAct=   27.
 IPart=  3 NShTot=       56280 NBatch=         804 AvBLen=        70.0
 PrsmSu-ThDecC:  IPartSL=    3    0 NPrtUSL=   40    1 IThBeg=    0 IThEnd=   39 CPU=   -1 GPU=   -1 NThAct=   26.
 IPart= 25 NShTot=       55300 NBatch=         790 AvBLen=        70.0
 PrsmSu-ThDecC:  IPartSL=   25    0 NPrtUSL=   40    1 IThBeg=    0 IThEnd=   39 CPU=   -1 GPU=   -1 NThAct=   25.
 IPart= 17 NShTot=       55720 NBatch=         796 AvBLen=        70.0
 IPart= 19 NShTot=       55650 NBatch=         795 AvBLen=        70.0
 PrsmSu-ThDecC:  IPartSL=   17    0 NPrtUSL=   40    1 IThBeg=    0 IThEnd=   39 CPU=   -1 GPU=   -1 NThAct=   24.
 PrsmSu-ThDecC:  IPartSL=   19    0 NPrtUSL=   40    1 IThBeg=    0 IThEnd=   39 CPU=   -1 GPU=   -1 NThAct=   23.
 IPart=  9 NShTot=       56070 NBatch=         801 AvBLen=        70.0
 PrsmSu-ThDecC:  IPartSL=    9    0 NPrtUSL=   40    1 IThBeg=    0 IThEnd=   39 CPU=   -1 GPU=   -1 NThAct=   22.
 IPart= 27 NShTot=       55300 NBatch=         790 AvBLen=        70.0
 PrsmSu-ThDecC:  IPartSL=   27    0 NPrtUSL=   40    1 IThBeg=    0 IThEnd=   39 CPU=   -1 GPU=   -1 NThAct=   21.
 IPart= 30 NShTot=       55090 NBatch=         787 AvBLen=        70.0
 PrsmSu-ThDecC:  IPartSL=   30    0 NPrtUSL=   40    1 IThBeg=    0 IThEnd=   39 CPU=   -1 GPU=   -1 NThAct=   20.
 IPart= 34 NShTot=       54880 NBatch=         784 AvBLen=        70.0
 PrsmSu-ThDecC:  IPartSL=   34    0 NPrtUSL=   40    1 IThBeg=    0 IThEnd=   39 CPU=   -1 GPU=   -1 NThAct=   19.
 IPart=  1 NShTot=       56280 NBatch=         804 AvBLen=        70.0
 PrsmSu-ThDecC:  IPartSL=    1    0 NPrtUSL=   40    1 IThBeg=    0 IThEnd=   39 CPU=   -1 GPU=   -1 NThAct=   18.
 IPart=  7 NShTot=       56140 NBatch=         802 AvBLen=        70.0
 PrsmSu-ThDecC:  IPartSL=    7    0 NPrtUSL=   40    1 IThBeg=    0 IThEnd=   39 CPU=   -1 GPU=   -1 NThAct=   17.
 IPart= 18 NShTot=       55650 NBatch=         795 AvBLen=        70.0
 PrsmSu-ThDecC:  IPartSL=   18    0 NPrtUSL=   40    1 IThBeg=    0 IThEnd=   39 CPU=   -1 GPU=   -1 NThAct=   16.
 IPart= 31 NShTot=       55020 NBatch=         786 AvBLen=        70.0
 PrsmSu-ThDecC:  IPartSL=   31    0 NPrtUSL=   40    1 IThBeg=    0 IThEnd=   39 CPU=   -1 GPU=   -1 NThAct=   15.
 IPart= 14 NShTot=       55930 NBatch=         799 AvBLen=        70.0
 PrsmSu-ThDecC:  IPartSL=   14    0 NPrtUSL=   40    1 IThBeg=    0 IThEnd=   39 CPU=   -1 GPU=   -1 NThAct=   14.
 IPart= 23 NShTot=       55370 NBatch=         791 AvBLen=        70.0
 PrsmSu-ThDecC:  IPartSL=   23    0 NPrtUSL=   40    1 IThBeg=    0 IThEnd=   39 CPU=   -1 GPU=   -1 NThAct=   13.
 IPart= 38 NShTot=       54740 NBatch=         782 AvBLen=        70.0
 PrsmSu-ThDecC:  IPartSL=   38    0 NPrtUSL=   40    1 IThBeg=    0 IThEnd=   39 CPU=   -1 GPU=   -1 NThAct=   12.
 IPart= 33 NShTot=       54880 NBatch=         784 AvBLen=        70.0
 PrsmSu-ThDecC:  IPartSL=   33    0 NPrtUSL=   40    1 IThBeg=    0 IThEnd=   39 CPU=   -1 GPU=   -1 NThAct=   11.
 IPart= 21 NShTot=       55510 NBatch=         793 AvBLen=        70.0
 PrsmSu-ThDecC:  IPartSL=   21    0 NPrtUSL=   40    1 IThBeg=    0 IThEnd=   39 CPU=   -1 GPU=   -1 NThAct=   10.
 IPart= 28 NShTot=       55230 NBatch=         789 AvBLen=        70.0
 PrsmSu-ThDecC:  IPartSL=   28    0 NPrtUSL=   40    1 IThBeg=    0 IThEnd=   39 CPU=   -1 GPU=   -1 NThAct=    9.
 IPart= 15 NShTot=       55790 NBatch=         797 AvBLen=        70.0
 PrsmSu-ThDecC:  IPartSL=   15    0 NPrtUSL=   40    1 IThBeg=    0 IThEnd=   39 CPU=   -1 GPU=   -1 NThAct=    8.
 IPart=  6 NShTot=       56140 NBatch=         802 AvBLen=        70.0
 PrsmSu-ThDecC:  IPartSL=    6    0 NPrtUSL=   40    1 IThBeg=    0 IThEnd=   39 CPU=   -1 GPU=   -1 NThAct=    7.
 IPart= 13 NShTot=       55930 NBatch=         799 AvBLen=        70.0
 PrsmSu-ThDecC:  IPartSL=   13    0 NPrtUSL=   40    1 IThBeg=    0 IThEnd=   39 CPU=   -1 GPU=   -1 NThAct=    6.
 IPart=  4 NShTot=       56140 NBatch=         802 AvBLen=        70.0
 PrsmSu-ThDecC:  IPartSL=    4    0 NPrtUSL=   40    1 IThBeg=    0 IThEnd=   39 CPU=   -1 GPU=   -1 NThAct=    5.
 IPart= 11 NShTot=       55930 NBatch=         799 AvBLen=        70.0
 PrsmSu-ThDecC:  IPartSL=   11    0 NPrtUSL=   40    1 IThBeg=    0 IThEnd=   39 CPU=   -1 GPU=   -1 NThAct=    4.
 IPart= 20 NShTot=       55580 NBatch=         794 AvBLen=        70.0
 PrsmSu-ThDecC:  IPartSL=   20    0 NPrtUSL=   40    1 IThBeg=    0 IThEnd=   39 CPU=   -1 GPU=   -1 NThAct=    3.
 IPart=  5 NShTot=       56140 NBatch=         802 AvBLen=        70.0
 PrsmSu-ThDecC:  IPartSL=    5    0 NPrtUSL=   40    1 IThBeg=    0 IThEnd=   39 CPU=   -1 GPU=   -1 NThAct=    2.
 IPart= 26 NShTot=       55300 NBatch=         790 AvBLen=        70.0
 PrsmSu-ThDecC:  IPartSL=   26    0 NPrtUSL=   40    1 IThBeg=    0 IThEnd=   39 CPU=   -1 GPU=   -1 NThAct=    1.
 PrSmSu:  NxtVal=          20481.
 --------------------------------------------------------
       Center         ----      EFG at Nuclei      ----
                      3XX-RR        3YY-RR        3ZZ-RR
 --------------------------------------------------------
     1   Atom       -0.139147      0.065306      0.073841
     2   Atom       -0.167530      0.081663      0.085867
     3   Atom       -0.166326      0.097175      0.069151
     4   Atom       -0.140119      0.078180      0.061939
     5   Atom       -0.137240      0.049592      0.087648
     6   Atom       -0.080535      0.021084      0.059451
     7   Atom       -0.020404     -0.092243      0.112647
     8   Atom       -0.004285     -0.069035      0.073320
     9   Atom       -0.079819      0.059506      0.020313
    10   Atom        0.009598      0.102885     -0.112483
    11   Atom        0.031121      0.074926     -0.106047
    12   Atom       -0.070545      0.083817     -0.013272
    13   Atom        0.031705     -0.052631      0.020927
    14   Atom        0.033986     -0.115191      0.081205
    15   Atom       -0.055192     -0.058462      0.113654
    16   Atom        0.016282     -0.080357      0.064075
    17   Atom       -0.008575      0.035352     -0.026777
    18   Atom       -0.041404      0.059784     -0.018380
    19   Atom        0.030396      0.069029     -0.099425
    20   Atom        0.032722      0.038534     -0.071257
    21   Atom        0.110422      0.058521     -0.168943
    22   Atom        0.096446      0.082745     -0.179191
    23   Atom        0.078719     -0.153455      0.074735
    24   Atom        0.089900     -0.067815     -0.022085
    25   Atom        0.069335     -0.129146      0.059811
    26   Atom        0.099233     -0.212391      0.113157
    27   Atom        0.072251     -0.006018     -0.066233
    28   Atom        0.094828      0.092210     -0.187037
    29   Atom        0.071137      0.007005     -0.078142
    30   Atom        0.054883     -0.065849      0.010966
    31   Atom        0.100150     -0.164570      0.064420
    32   Atom        0.094464     -0.183793      0.089329
    33   Atom        0.100074     -0.008942     -0.091132
    34   Atom        0.111086      0.092978     -0.204064
    35   Atom        0.109465      0.015262     -0.124727
    36   Atom        0.140737     -0.137215     -0.003522
    37   Atom        0.129238     -0.099742     -0.029496
    38   Atom        0.097617     -0.172909      0.075293
    39   Atom        0.130591      0.037053     -0.167643
    40   Atom        0.134932      0.058558     -0.193490
    41   Atom        0.098725     -0.106821      0.008096
    42   Atom        0.087654      0.013137     -0.100790
    43   Atom        0.099864     -0.083397     -0.016467
    44   Atom        0.072657     -0.146824      0.074168
    45   Atom        0.069905      0.085528     -0.155433
    46   Atom        0.081896      0.081944     -0.163840
    47   Atom        0.110667      0.081349     -0.192015
    48   Atom        0.067663     -0.025943     -0.041720
    49   Atom        0.097302     -0.184361      0.087060
    50   Atom        0.085828     -0.130976      0.045148
    51   Atom        0.018949     -0.041658      0.022709
    52   Atom        0.011291      0.042782     -0.054073
    53   Atom        0.033811      0.092093     -0.125904
    54   Atom        0.017938      0.012027     -0.029965
    55   Atom        0.028234     -0.134648      0.106413
    56   Atom        0.032731     -0.097937      0.065207
    57   Atom        0.017016      0.084020     -0.101036
    58   Atom        0.032269      0.099880     -0.132149
    59   Atom        0.010054     -0.084310      0.074256
    60   Atom        0.022204     -0.028062      0.005858
    61   Atom       -0.060957      0.029955      0.031002
    62   Atom       -0.068326      0.092600     -0.024274
    63   Atom       -0.075391     -0.028396      0.103786
    64   Atom       -0.059311      0.107369     -0.048059
    65   Atom       -0.060792     -0.013298      0.074090
    66   Atom       -0.165721      0.122996      0.042725
    67   Atom       -0.113652      0.054897      0.058755
    68   Atom       -0.120784      0.073158      0.047626
    69   Atom       -0.165685      0.067635      0.098050
    70   Atom       -0.166155      0.111819      0.054335
 --------------------------------------------------------
                        XY            XZ            YZ
 --------------------------------------------------------
     1   Atom       -0.032848     -0.117435     -0.046234
     2   Atom        0.094911     -0.048506     -0.005231
     3   Atom        0.070679      0.094018     -0.002977
     4   Atom       -0.075546      0.103354      0.028548
     5   Atom       -0.139612     -0.021332     -0.011145
     6   Atom        0.113248     -0.050668      0.031152
     7   Atom        0.134897      0.000277      0.004161
     8   Atom        0.157936      0.037468     -0.073976
     9   Atom        0.095508      0.089334     -0.051473
    10   Atom        0.041665      0.149005     -0.047142
    11   Atom       -0.014826      0.147311      0.030756
    12   Atom       -0.068443      0.099628      0.074961
    13   Atom       -0.131279      0.076756      0.112770
    14   Atom       -0.138146      0.029473      0.054796
    15   Atom       -0.132549     -0.030209     -0.006740
    16   Atom       -0.111596     -0.095606     -0.132288
    17   Atom       -0.069303     -0.101910     -0.130115
    18   Atom       -0.054906     -0.136621     -0.021485
    19   Atom        0.020150     -0.128476      0.061609
    20   Atom        0.097409     -0.110785      0.096856
    21   Atom       -0.025977     -0.043243     -0.107495
    22   Atom        0.027215     -0.056128      0.014031
    23   Atom        0.057894     -0.001627      0.074539
    24   Atom        0.060262     -0.037083      0.120226
    25   Atom       -0.019317     -0.020932     -0.075542
    26   Atom       -0.057100     -0.021311      0.001632
    27   Atom       -0.022630      0.027322      0.119881
    28   Atom       -0.036039      0.045845      0.090047
    29   Atom        0.040052      0.041603     -0.121702
    30   Atom        0.036479      0.053301     -0.125337
    31   Atom        0.001099      0.022494     -0.099567
    32   Atom        0.004994     -0.000353      0.023712
    33   Atom        0.011993     -0.005861      0.159575
    34   Atom        0.017471      0.012670      0.087739
    35   Atom        0.018188     -0.012399     -0.132908
    36   Atom        0.012291     -0.003766     -0.145535
    37   Atom        0.007846     -0.015205      0.172572
    38   Atom        0.010683     -0.004218      0.075283
    39   Atom        0.012932     -0.001194     -0.095429
    40   Atom       -0.005155     -0.010936      0.009583
    41   Atom       -0.043858     -0.022302     -0.135520
    42   Atom       -0.024239     -0.046989     -0.117741
    43   Atom       -0.038116      0.031349      0.136497
    44   Atom       -0.027066      0.008615      0.074903
    45   Atom        0.030401      0.039222      0.005564
    46   Atom        0.020467      0.046194     -0.085208
    47   Atom        0.030399     -0.065332      0.080018
    48   Atom        0.027780     -0.047125      0.115424
    49   Atom        0.078803      0.006726      0.016957
    50   Atom        0.059834      0.026167     -0.082481
    51   Atom        0.126289      0.082183     -0.085935
    52   Atom        0.086480      0.130300     -0.082849
    53   Atom       -0.031295      0.151741      0.090366
    54   Atom       -0.084551      0.069596      0.120334
    55   Atom       -0.139038      0.000651      0.007456
    56   Atom       -0.134811     -0.030705     -0.080614
    57   Atom       -0.053309     -0.124958     -0.087822
    58   Atom        0.012180     -0.169366     -0.012328
    59   Atom        0.146519     -0.032599      0.053368
    60   Atom        0.125707     -0.111686      0.118436
    61   Atom       -0.111597     -0.098128     -0.083083
    62   Atom        0.034501     -0.115998      0.050121
    63   Atom        0.113355      0.017256     -0.019739
    64   Atom        0.018247      0.105825     -0.026592
    65   Atom       -0.124275      0.061399      0.054764
    66   Atom       -0.000059      0.125739     -0.003794
    67   Atom       -0.112918      0.046238      0.025230
    68   Atom       -0.093429     -0.082115     -0.012002
    69   Atom        0.097237      0.020520     -0.001582
    70   Atom        0.043796     -0.128236      0.018705
 --------------------------------------------------------


 ---------------------------------------------------------------------------------
              Nuclear Quadrupole Coupling Constant in Principal Axis System
 ---------------------------------------------------------------------------------

       Atom             a.u.   MegaHertz   Gauss  10(-4) cm-1        Axes


 ---------------------------------------------------------------------------------

 No NMR shielding tensors so no spin-rotation constants.
 Leave Link  601 at Mon May 27 21:29:01 2024, MaxMem= 13421772800 cpu:              21.8 elap:               0.7
 FitSet:  NAtFit=    70 NAtPot=    70 NAtFrz=     0 MDM=    74 TotChg=   0.00000
 Merz-Kollman atomic radii used.
 Atom Element Radius
    1     6    1.50
    2     6    1.50
    3     6    1.50
    4     6    1.50
    5     6    1.50
    6     6    1.50
    7     6    1.50
    8     6    1.50
    9     6    1.50
   10     6    1.50
   11     6    1.50
   12     6    1.50
   13     6    1.50
   14     6    1.50
   15     6    1.50
   16     6    1.50
   17     6    1.50
   18     6    1.50
   19     6    1.50
   20     6    1.50
   21     6    1.50
   22     6    1.50
   23     6    1.50
   24     6    1.50
   25     6    1.50
   26     6    1.50
   27     6    1.50
   28     6    1.50
   29     6    1.50
   30     6    1.50
   31     6    1.50
   32     6    1.50
   33     6    1.50
   34     6    1.50
   35     6    1.50
   36     6    1.50
   37     6    1.50
   38     6    1.50
   39     6    1.50
   40     6    1.50
   41     6    1.50
   42     6    1.50
   43     6    1.50
   44     6    1.50
   45     6    1.50
   46     6    1.50
   47     6    1.50
   48     6    1.50
   49     6    1.50
   50     6    1.50
   51     6    1.50
   52     6    1.50
   53     6    1.50
   54     6    1.50
   55     6    1.50
   56     6    1.50
   57     6    1.50
   58     6    1.50
   59     6    1.50
   60     6    1.50
   61     6    1.50
   62     6    1.50
   63     6    1.50
   64     6    1.50
   65     6    1.50
   66     6    1.50
   67     6    1.50
   68     6    1.50
   69     6    1.50
   70     6    1.50
 Generate VDW surfaces: Layer= 4 Dens= 6 Start= 1.400 Inc= 0.200

 **********************************************************************

            Electrostatic Properties Using The SCF Density.

 **********************************************************************

       Atomic Center    1 is at  -3.883824 -0.411359 -1.202060
       Atomic Center    2 is at  -4.002143  0.877857 -0.597705
       Atomic Center    3 is at  -3.922193  0.653412  0.795329
       Atomic Center    4 is at  -3.786236 -0.734862  1.040101
       Atomic Center    5 is at  -3.746826 -1.368814 -0.231930
       Atomic Center    6 is at  -3.310591  1.982522 -1.072293
       Atomic Center    7 is at  -2.639993  2.817513 -0.184410
       Atomic Center    8 is at  -2.573260  2.591219  1.173495
       Atomic Center    9 is at  -3.194886  1.465912  1.632590
       Atomic Center   10 is at  -2.383455  0.964920  2.691336
       Atomic Center   11 is at  -2.328045 -0.431920  2.973777
       Atomic Center   12 is at  -2.995034 -1.243963  2.084622
       Atomic Center   13 is at  -2.198544 -2.322733  1.909825
       Atomic Center   14 is at  -2.177500 -2.960201  0.641596
       Atomic Center   15 is at  -2.916038 -2.442703 -0.409074
       Atomic Center   16 is at  -2.185223 -2.557103 -1.516080
       Atomic Center   17 is at  -2.298015 -1.659386 -2.480370
       Atomic Center   18 is at  -3.154643 -0.560310 -2.352681
       Atomic Center   19 is at  -2.462338  0.572819 -2.924718
       Atomic Center   20 is at  -2.543677  1.820295 -2.250803
       Atomic Center   21 is at  -1.072294 -1.263469 -3.101585
       Atomic Center   22 is at  -1.210578  0.136387 -3.335793
       Atomic Center   23 is at  -1.412580  3.196203 -0.856600
       Atomic Center   24 is at  -1.377079  2.530779 -2.115170
       Atomic Center   25 is at  -0.984527 -3.222891 -1.182015
       Atomic Center   26 is at  -0.975823 -3.407191  0.161787
       Atomic Center   27 is at  -1.024222 -2.199375  2.638075
       Atomic Center   28 is at  -1.109195 -1.011287  3.230869
       Atomic Center   29 is at  -1.323683  1.851821  2.889227
       Atomic Center   30 is at  -1.407660  2.788241  1.915291
       Atomic Center   31 is at  -0.206835  3.242830  1.228126
       Atomic Center   32 is at  -0.196326  3.461490 -0.146829
       Atomic Center   33 is at  -0.146590  2.086583 -2.628982
       Atomic Center   34 is at  -0.066803  0.891173 -3.301025
       Atomic Center   35 is at   0.172215 -1.890082 -2.804771
       Atomic Center   36 is at   0.170289 -2.903838 -1.843472
       Atomic Center   37 is at   0.161601 -2.730098  2.193515
       Atomic Center   38 is at   0.189485 -3.302932  0.940395
       Atomic Center   39 is at  -0.092663  1.282523  3.267736
       Atomic Center   40 is at  -0.007793 -0.129814  3.422669
       Atomic Center   41 is at   1.008124  2.879175  1.827860
       Atomic Center   42 is at   1.059572  1.929152  2.853079
       Atomic Center   43 is at   1.038978  2.661619 -2.118860
       Atomic Center   44 is at   0.982496  3.334707 -0.894700
       Atomic Center   45 is at   1.180089  0.204969 -3.356271
       Atomic Center   46 is at   1.268704 -1.126062 -3.154069
       Atomic Center   47 is at   1.171469 -0.778357  3.155316
       Atomic Center   48 is at   1.328695 -2.050836  2.634048
       Atomic Center   49 is at   1.408663 -3.291606  0.219256
       Atomic Center   50 is at   1.393633 -3.095527 -1.188438
       Atomic Center   51 is at   2.540679 -2.406385 -1.527104
       Atomic Center   52 is at   2.497361 -1.405940 -2.515201
       Atomic Center   53 is at   2.277545  0.775079 -2.802304
       Atomic Center   54 is at   2.251411  2.025091 -2.263648
       Atomic Center   55 is at   2.246793  3.033204 -0.295764
       Atomic Center   56 is at   2.224887  2.776042  1.110518
       Atomic Center   57 is at   2.266199  1.250117  2.711366
       Atomic Center   58 is at   2.344926 -0.146545  2.870115
       Atomic Center   59 is at   2.568781 -2.739807  0.689513
       Atomic Center   60 is at   2.478179 -2.075405  1.904428
       Atomic Center   61 is at   2.998710  1.789687  1.667478
       Atomic Center   62 is at   3.178842 -0.905593  2.104573
       Atomic Center   63 is at   3.264126 -2.228547 -0.370256
       Atomic Center   64 is at   3.168271 -0.206225 -2.385947
       Atomic Center   65 is at   3.052973  2.263866 -1.136581
       Atomic Center   66 is at   3.914653  0.027105 -1.157262
       Atomic Center   67 is at   3.860937  1.295889 -0.581824
       Atomic Center   68 is at   3.824240  1.056362  0.836714
       Atomic Center   69 is at   3.923361 -0.988224 -0.182346
       Atomic Center   70 is at   3.900229 -0.317166  1.054317
      ESP Fit Center   71 is at  -5.629911 -0.411359 -0.035362
      ESP Fit Center   72 is at  -1.989037  0.005716 -0.398424
      ESP Fit Center   73 is at  -5.812598 -0.201592 -0.398424
      ESP Fit Center   74 is at  -5.812598 -0.621125 -0.398424
      ESP Fit Center   75 is at  -1.866337  0.003246 -0.792370
      ESP Fit Center   76 is at  -5.932906 -0.202987 -0.792370
      ESP Fit Center   77 is at  -5.932906 -0.619730 -0.792370
      ESP Fit Center   78 is at  -5.849017 -1.027942 -0.792370
      ESP Fit Center   79 is at  -5.943474 -0.001669 -1.202060
      ESP Fit Center   80 is at  -5.983824 -0.411359 -1.202060
      ESP Fit Center   81 is at  -5.943474 -0.821048 -1.202060
      ESP Fit Center   82 is at  -5.823971 -1.214994 -1.202060
      ESP Fit Center   83 is at  -5.629911 -1.578056 -1.202060
      ESP Fit Center   84 is at  -5.849017  0.205224 -1.611749
      ESP Fit Center   85 is at  -5.932906 -0.202987 -1.611749
      ESP Fit Center   86 is at  -5.932906 -0.619730 -1.611749
      ESP Fit Center   87 is at  -5.849017 -1.027942 -1.611749
      ESP Fit Center   88 is at  -5.684672 -1.410910 -1.611749
      ESP Fit Center   89 is at  -5.446600 -1.752957 -1.611749
      ESP Fit Center   90 is at  -5.546253  0.588892 -2.005695
      ESP Fit Center   91 is at  -5.722411  0.208133 -2.005695
      ESP Fit Center   92 is at  -5.812598 -0.201592 -2.005695
      ESP Fit Center   93 is at  -5.812598 -0.621125 -2.005695
      ESP Fit Center   94 is at  -5.722411 -1.030850 -2.005695
      ESP Fit Center   95 is at  -5.546253 -1.411609 -2.005695
      ESP Fit Center   96 is at  -5.292362 -1.745597 -2.005695
      ESP Fit Center   97 is at  -4.972610 -2.017197 -2.005695
      ESP Fit Center   98 is at  -4.601947 -2.213710 -2.005695
      ESP Fit Center   99 is at  -5.190789  0.746511 -2.368757
      ESP Fit Center  100 is at  -5.429907  0.400088 -2.368757
      ESP Fit Center  101 is at  -5.579173  0.006507 -2.368757
      ESP Fit Center  102 is at  -5.629911 -0.411359 -2.368757
      ESP Fit Center  103 is at  -5.579173 -0.829224 -2.368757
      ESP Fit Center  104 is at  -5.429907 -1.222805 -2.368757
      ESP Fit Center  105 is at  -5.190789 -1.569228 -2.368757
      ESP Fit Center  106 is at  -4.875714 -1.848359 -2.368757
      ESP Fit Center  107 is at  -4.856243  0.710872 -2.686984
      ESP Fit Center  108 is at  -5.133022  0.391452 -2.686984
      ESP Fit Center  109 is at  -5.308599  0.006993 -2.686984
      ESP Fit Center  110 is at  -5.368749 -0.411359 -2.686984
      ESP Fit Center  111 is at  -5.308599 -0.829710 -2.686984
      ESP Fit Center  112 is at  -5.133022 -1.214169 -2.686984
      ESP Fit Center  113 is at  -5.090928  2.483695  0.205930
      ESP Fit Center  114 is at  -5.410681  2.212095  0.205930
      ESP Fit Center  115 is at  -5.664572  1.878107  0.205930
      ESP Fit Center  116 is at  -5.840729  1.497348  0.205930
      ESP Fit Center  117 is at  -5.930917  1.087623  0.205930
      ESP Fit Center  118 is at  -5.262866  2.506577 -0.188016
      ESP Fit Center  119 is at  -5.564918  2.219455 -0.188016
      ESP Fit Center  120 is at  -5.802990  1.877408 -0.188016
      ESP Fit Center  121 is at  -5.967335  1.494440 -0.188016
      ESP Fit Center  122 is at  -6.051224  1.086228 -0.188016
      ESP Fit Center  123 is at  -6.051224  0.669485 -0.188016
      ESP Fit Center  124 is at  -5.967335  0.261274 -0.188016
      ESP Fit Center  125 is at  -5.802990 -0.121695 -0.188016
      ESP Fit Center  126 is at  -1.984655  0.463252 -0.188016
      ESP Fit Center  127 is at  -5.487067  2.362781 -0.597705
      ESP Fit Center  128 is at  -5.748229  2.044554 -0.597705
      ESP Fit Center  129 is at  -5.942290  1.681492 -0.597705
      ESP Fit Center  130 is at  -6.061792  1.287546 -0.597705
      ESP Fit Center  131 is at  -6.102143  0.877857 -0.597705
      ESP Fit Center  132 is at  -6.061792  0.468167 -0.597705
      ESP Fit Center  133 is at  -5.942290  0.074221 -0.597705
      ESP Fit Center  134 is at  -5.564918  2.219455 -1.007395
      ESP Fit Center  135 is at  -5.802990  1.877408 -1.007395
      ESP Fit Center  136 is at  -5.967335  1.494440 -1.007395
      ESP Fit Center  137 is at  -6.051224  1.086228 -1.007395
      ESP Fit Center  138 is at  -6.051224  0.669485 -1.007395
      ESP Fit Center  139 is at  -5.967335  0.261274 -1.007395
      ESP Fit Center  140 is at  -5.410681  2.212095 -1.401341
      ESP Fit Center  141 is at  -5.664572  1.878107 -1.401341
      ESP Fit Center  142 is at  -5.840729  1.497348 -1.401341
      ESP Fit Center  143 is at  -5.930917  1.087623 -1.401341
      ESP Fit Center  144 is at  -5.930917  0.668090 -1.401341
      ESP Fit Center  145 is at  -5.309107  2.035726 -1.764403
      ESP Fit Center  146 is at  -5.548225  1.689303 -1.764403
      ESP Fit Center  147 is at  -5.697491  1.295722 -1.764403
      ESP Fit Center  148 is at  -5.748229  0.877857 -1.764403
      ESP Fit Center  149 is at  -5.251341  1.680667 -2.082630
      ESP Fit Center  150 is at  -5.426917  1.296208 -2.082630
      ESP Fit Center  151 is at  -5.487067  0.877857 -2.082630
      ESP Fit Center  152 is at  -4.994089  1.492044 -2.343792
      ESP Fit Center  153 is at  -5.148975  1.092237 -2.343792
      ESP Fit Center  154 is at  -4.698111  1.279674 -2.537852
      ESP Fit Center  155 is at  -4.618162  0.251594  2.735476
      ESP Fit Center  156 is at  -5.069026  0.867792  2.541415
      ESP Fit Center  157 is at  -5.069026  0.439032  2.541415
      ESP Fit Center  158 is at  -5.346968  1.071763  2.280253
      ESP Fit Center  159 is at  -5.407118  0.653412  2.280253
      ESP Fit Center  160 is at  -5.346968  0.235060  2.280253
      ESP Fit Center  161 is at  -5.468276  1.464859  1.962026
      ESP Fit Center  162 is at  -5.617541  1.071278  1.962026
      ESP Fit Center  163 is at  -5.668279  0.653412  1.962026
      ESP Fit Center  164 is at  -5.617541  0.235546  1.962026
      ESP Fit Center  165 is at  -5.330731  1.987650  1.598964
      ESP Fit Center  166 is at  -5.584622  1.653662  1.598964
      ESP Fit Center  167 is at  -5.760780  1.272904  1.598964
      ESP Fit Center  168 is at  -5.850967  0.863179  1.598964
      ESP Fit Center  169 is at  -5.850967  0.443645  1.598964
      ESP Fit Center  170 is at  -5.760780  0.033920  1.598964
      ESP Fit Center  171 is at  -5.182917  2.282133  1.205019
      ESP Fit Center  172 is at  -5.484969  1.995011  1.205019
      ESP Fit Center  173 is at  -5.723041  1.652964  1.205019
      ESP Fit Center  174 is at  -5.887385  1.269995  1.205019
      ESP Fit Center  175 is at  -5.971275  0.861783  1.205019
      ESP Fit Center  176 is at  -5.971275  0.445041  1.205019
      ESP Fit Center  177 is at  -5.887385  0.036829  1.205019
      ESP Fit Center  178 is at  -5.088891  2.399498  0.795329
      ESP Fit Center  179 is at  -5.407118  2.138336  0.795329
      ESP Fit Center  180 is at  -5.668279  1.820109  0.795329
      ESP Fit Center  181 is at  -5.862340  1.457047  0.795329
      ESP Fit Center  182 is at  -5.981842  1.063102  0.795329
      ESP Fit Center  183 is at  -6.022193  0.653412  0.795329
      ESP Fit Center  184 is at  -5.981842  0.243722  0.795329
      ESP Fit Center  185 is at  -5.862340 -0.150223  0.795329
      ESP Fit Center  186 is at  -5.484969  1.995011  0.385639
      ESP Fit Center  187 is at  -5.723041  1.652964  0.385639
      ESP Fit Center  188 is at  -5.887385  1.269995  0.385639
      ESP Fit Center  189 is at  -5.971275  0.861783  0.385639
      ESP Fit Center  190 is at  -5.971275  0.445041  0.385639
      ESP Fit Center  191 is at  -5.887385  0.036829  0.385639
      ESP Fit Center  192 is at  -1.904705  0.238808  0.385639
      ESP Fit Center  193 is at  -1.982046  0.653412 -0.008306
      ESP Fit Center  194 is at  -2.027406  0.236338 -0.008306
      ESP Fit Center  195 is at  -4.489328  0.196183  2.786187
      ESP Fit Center  196 is at  -4.778182 -0.120675  2.786187
      ESP Fit Center  197 is at  -4.933068 -0.520482  2.786187
      ESP Fit Center  198 is at  -5.035434  0.067949  2.525025
      ESP Fit Center  199 is at  -5.211010 -0.316511  2.525025
      ESP Fit Center  200 is at  -5.271160 -0.734862  2.525025
      ESP Fit Center  201 is at  -5.211010 -1.153214  2.525025
      ESP Fit Center  202 is at  -5.035434 -1.537673  2.525025
      ESP Fit Center  203 is at  -5.481584 -0.316996  2.206799
      ESP Fit Center  204 is at  -5.532322 -0.734862  2.206799
      ESP Fit Center  205 is at  -5.481584 -1.152728  2.206799
      ESP Fit Center  206 is at  -5.332318 -1.546309  2.206799
      ESP Fit Center  207 is at  -5.093200 -1.892731  2.206799
      ESP Fit Center  208 is at  -5.624822 -0.115370  1.843736
      ESP Fit Center  209 is at  -5.715010 -0.525095  1.843736
      ESP Fit Center  210 is at  -5.715010 -0.944629  1.843736
      ESP Fit Center  211 is at  -5.624822 -1.354354  1.843736
      ESP Fit Center  212 is at  -5.448665 -1.735112  1.843736
      ESP Fit Center  213 is at  -5.194774 -2.069100  1.843736
      ESP Fit Center  214 is at  -4.875021 -2.340700  1.843736
      ESP Fit Center  215 is at  -5.835318 -0.526491  1.449791
      ESP Fit Center  216 is at  -5.835318 -0.943233  1.449791
      ESP Fit Center  217 is at  -5.751428 -1.351445  1.449791
      ESP Fit Center  218 is at  -5.587083 -1.734414  1.449791
      ESP Fit Center  219 is at  -5.349011 -2.076461  1.449791
      ESP Fit Center  220 is at  -5.046959 -2.363583  1.449791
      ESP Fit Center  221 is at  -4.693293 -2.584024  1.449791
      ESP Fit Center  222 is at  -5.845885 -0.325172  1.040101
      ESP Fit Center  223 is at  -5.886236 -0.734862  1.040101
      ESP Fit Center  224 is at  -5.845885 -1.144552  1.040101
      ESP Fit Center  225 is at  -5.726383 -1.538497  1.040101
      ESP Fit Center  226 is at  -5.532322 -1.901560  1.040101
      ESP Fit Center  227 is at  -5.271160 -2.219786  1.040101
      ESP Fit Center  228 is at  -1.768748 -0.320258  0.630411
      ESP Fit Center  229 is at  -1.893505  0.077373  0.630411
      ESP Fit Center  230 is at  -5.835318 -0.526491  0.630411
      ESP Fit Center  231 is at  -5.835318 -0.943233  0.630411
      ESP Fit Center  232 is at  -5.751428 -1.351445  0.630411
      ESP Fit Center  233 is at  -1.891448 -0.317788  0.236466
      ESP Fit Center  234 is at  -5.715010 -0.525095  0.236466
      ESP Fit Center  235 is at  -5.053790 -2.526683  0.934768
      ESP Fit Center  236 is at  -4.738716 -2.805815  0.934768
      ESP Fit Center  237 is at  -5.675599 -1.578581  0.571706
      ESP Fit Center  238 is at  -5.585412 -1.988306  0.571706
      ESP Fit Center  239 is at  -5.409254 -2.369064  0.571706
      ESP Fit Center  240 is at  -5.155364 -2.703052  0.571706
      ESP Fit Center  241 is at  -4.835611 -2.974652  0.571706
      ESP Fit Center  242 is at  -1.854095 -0.556579  0.177760
      ESP Fit Center  243 is at  -5.712018 -0.752231  0.177760
      ESP Fit Center  244 is at  -5.795907 -1.160443  0.177760
      ESP Fit Center  245 is at  -5.795907 -1.577185  0.177760
      ESP Fit Center  246 is at  -5.712018 -1.985397  0.177760
      ESP Fit Center  247 is at  -5.547673 -2.368365  0.177760
      ESP Fit Center  248 is at  -5.309601 -2.710412  0.177760
      ESP Fit Center  249 is at  -5.007549 -2.997534  0.177760
      ESP Fit Center  250 is at  -1.806679 -0.565179 -0.231930
      ESP Fit Center  251 is at  -2.000739 -0.202116 -0.231930
[...]
 **** Fit       0.000633
 **** Fit       0.000064
 **** Fit      -0.000259
 **** Fit      -0.000473
 **** Fit       0.001720
 **** Fit       0.001398
 **** Fit       0.000935
 **** Fit       0.000467
 **** Fit      -0.000015
 **** Fit      -0.000299
 **** Fit      -0.000552
 **** Fit       0.002093
 **** Fit       0.001740
 **** Fit       0.001238
 **** Fit       0.000738
 **** Fit       0.000318
 **** Fit       0.000000
 **** Fit      -0.000191
 **** Fit      -0.000406
 **** Fit       0.002229
 **** Fit       0.001661
 **** Fit       0.001064
 **** Fit       0.000571
 **** Fit       0.000228
 **** Fit       0.000102
 **** Fit       0.000072
 **** Fit      -0.000031
 **** Fit       0.000470
 **** Fit       0.000540
 **** Fit       0.001272
 **** Fit       0.001826
 **** Fit       0.001021
 **** Fit       0.000389
 **** Fit      -0.000075
 **** Fit      -0.000368
 **** Fit      -0.000478
 **** Fit      -0.000391
 **** Fit       0.000782
 **** Fit       0.000312
 **** Fit      -0.000052
 **** Fit      -0.000310
 **** Fit      -0.000449
 **** Fit      -0.000448
 **** Fit      -0.000281
 **** Fit       0.000070
 **** Fit       0.000608
 **** Fit       0.000150
 **** Fit      -0.000061
 **** Fit      -0.000230
 **** Fit      -0.000347
 **** Fit      -0.000391
 **** Fit      -0.000334
 **** Fit      -0.000141
 **** Fit       0.000215
 **** Fit       0.000753
 **** Fit       0.001465
 **** Fit      -0.000093
 **** Fit      -0.000140
 **** Fit      -0.000197
 **** Fit      -0.000249
 **** Fit      -0.000270
 **** Fit      -0.000225
 **** Fit      -0.000077
 **** Fit       0.000211
 **** Fit       0.000665
 **** Fit      -0.000138
 **** Fit      -0.000055
 **** Fit      -0.000038
 **** Fit      -0.000071
 **** Fit      -0.000122
 **** Fit      -0.000152
 **** Fit      -0.000117
 **** Fit       0.000130
 **** Fit       0.000202
 **** Fit       0.000169
 **** Fit       0.000063
 **** Fit      -0.000071
 **** Fit       0.000413
 **** Fit       0.000525
 **** Fit       0.000473
 **** Fit       0.000296
 **** Fit       0.000897
 **** Fit       0.000886
 **** Fit       0.002230
 **** Fit       0.001272
 **** Fit       0.001559
 **** Fit       0.000737
 **** Fit       0.000893
 **** Fit       0.001061
 **** Fit       0.001210
 **** Fit       0.000548
 **** Fit       0.000518
 **** Fit       0.000553
 **** Fit       0.000643
 **** Fit       0.000749
 **** Fit       0.000816
 **** Fit       0.000585
 **** Fit       0.000379
 **** Fit       0.000287
 **** Fit       0.000305
 **** Fit       0.000391
 **** Fit       0.000482
 **** Fit       0.000765
 **** Fit       0.000347
 **** Fit       0.000094
 **** Fit       0.000012
 **** Fit       0.000070
 **** Fit       0.000204
 **** Fit       0.000333
 **** Fit       0.001802
 **** Fit       0.001020
 **** Fit       0.000394
 **** Fit      -0.000026
 **** Fit      -0.000226
 **** Fit      -0.000226
 **** Fit      -0.000074
 **** Fit       0.000156
 **** Fit       0.000368
 **** Fit      -0.000375
 **** Fit      -0.000104
 **** Fit       0.000257
 **** Fit       0.000605
 **** Fit       0.000972
 **** Fit       0.042347
 **** Fit       0.000183
 **** Fit       0.000183
 **** Fit       0.000374
 **** Fit       0.000732
 **** Fit       0.001222
 **** Fit       0.000465
 **** Fit       0.000142
 **** Fit       0.000037
 **** Fit       0.000128
 **** Fit       0.000379
 **** Fit       0.000757
 **** Fit       0.001238
 **** Fit       0.001800
 **** Fit       0.002385
 **** Fit       0.000984
 **** Fit       0.000392
 **** Fit       0.000007
 **** Fit      -0.000156
 **** Fit      -0.000129
 **** Fit       0.000039
 **** Fit       0.000309
 **** Fit       0.000657
 **** Fit       0.001077
 **** Fit       0.000991
 **** Fit      -0.000190
 **** Fit      -0.000368
 **** Fit      -0.000363
 **** Fit      -0.000233
 **** Fit      -0.000033
 **** Fit       0.000208
 **** Fit       0.000483
 **** Fit      -0.000541
 **** Fit      -0.000536
 **** Fit      -0.000424
 **** Fit      -0.000270
 **** Fit      -0.000119
 **** Fit       0.000016
 **** Fit      -0.000582
 **** Fit      -0.000467
 **** Fit      -0.000339
 **** Fit      -0.000257
 **** Fit      -0.000249
 **** Fit      -0.000301
 **** Fit      -0.000194
 **** Fit      -0.000196
 **** Fit       0.000168
 **** Fit       0.000071
 **** Fit       0.002057
 **** Fit       0.001444
 **** Fit       0.000929
 **** Fit       0.000283
 **** Fit       0.001926
 **** Fit       0.001373
 **** Fit       0.000886
 **** Fit       0.000516
 **** Fit       0.000070
 **** Fit       0.000098
 **** Fit       0.001601
 **** Fit       0.001150
 **** Fit       0.000737
 **** Fit       0.000398
 **** Fit       0.000168
 **** Fit      -0.000114
 **** Fit       0.000035
 **** Fit       0.000307
 **** Fit       0.000998
 **** Fit       0.000639
 **** Fit       0.000312
 **** Fit       0.000050
 **** Fit      -0.000105
 **** Fit      -0.000274
 **** Fit      -0.000045
 **** Fit       0.000349
 **** Fit       0.000845
 **** Fit       0.001325
 **** Fit       0.000542
 **** Fit       0.000267
 **** Fit       0.000001
 **** Fit      -0.000213
 **** Fit      -0.000321
 **** Fit      -0.000392
 **** Fit      -0.000120
 **** Fit       0.000347
 **** Fit       0.000963
 **** Fit       0.000308
 **** Fit       0.000082
 **** Fit      -0.000162
 **** Fit      -0.000367
 **** Fit      -0.000464
 **** Fit      -0.000429
 **** Fit       0.000281
 **** Fit       0.000071
 **** Fit      -0.000181
 **** Fit      -0.000397
 **** Fit      -0.000501
 **** Fit       0.000492
 **** Fit       0.000266
 **** Fit      -0.000019
 **** Fit      -0.000267
 **** Fit       0.000951
 **** Fit       0.000693
 **** Fit       0.001583
 **** Fit       0.001293
 **** Fit       0.000167
 **** Fit       0.000356
 **** Fit       0.000565
 **** Fit      -0.000157
 **** Fit      -0.000217
 **** Fit      -0.000229
 **** Fit      -0.000204
 **** Fit      -0.000136
 **** Fit      -0.000064
 **** Fit      -0.000299
 **** Fit      -0.000479
 **** Fit      -0.000611
 **** Fit      -0.000699
 **** Fit      -0.000727
 **** Fit       0.000321
 **** Fit      -0.000065
 **** Fit      -0.000396
 **** Fit      -0.000669
 **** Fit      -0.000887
 **** Fit      -0.001051
 **** Fit      -0.001142
 **** Fit       0.001213
 **** Fit       0.000798
 **** Fit       0.000335
 **** Fit      -0.000101
 **** Fit      -0.000480
 **** Fit      -0.000797
 **** Fit      -0.001052
 **** Fit      -0.001243
 **** Fit      -0.001354
 **** Fit       0.001121
 **** Fit       0.000713
 **** Fit       0.000252
 **** Fit      -0.000185
 **** Fit      -0.000564
 **** Fit      -0.000875
 **** Fit      -0.001116
 **** Fit      -0.001286
 **** Fit      -0.001371
 **** Fit       0.000222
 **** Fit      -0.000204
 **** Fit      -0.000574
 **** Fit      -0.000867
 **** Fit      -0.001075
 **** Fit      -0.001197
 **** Fit      -0.001228
 **** Fit      -0.000598
 **** Fit      -0.000856
 **** Fit      -0.001010
 **** Fit      -0.001058
 **** Fit      -0.001000
 **** Fit      -0.000839
 **** Fit      -0.001011
 **** Fit      -0.000958
 **** Fit      -0.000780
 **** Fit      -0.000497
 **** Fit      -0.000267
 **** Fit      -0.000036
 **** Fit      -0.000781
 **** Fit      -0.001140
 **** Fit      -0.001575
 **** Fit      -0.002316
 **** Fit      -0.002069
 **** Fit      -0.001593
 **** Fit      -0.000925
 **** Fit      -0.000138
 **** Fit       0.000656
 **** Fit      -0.001566
 **** Fit      -0.001872
 **** Fit      -0.002163
 **** Fit      -0.002335
 **** Fit      -0.002300
 **** Fit      -0.002056
 **** Fit      -0.001612
 **** Fit      -0.001016
 **** Fit      -0.000358
 **** Fit       0.000228
 **** Fit      -0.001841
 **** Fit      -0.002027
 **** Fit      -0.002228
 **** Fit      -0.002344
 **** Fit      -0.002161
 **** Fit      -0.001933
 **** Fit      -0.001548
 **** Fit      -0.001060
 **** Fit      -0.000572
 **** Fit      -0.001936
 **** Fit      -0.002039
 **** Fit      -0.002163
 **** Fit      -0.002226
 **** Fit      -0.001916
 **** Fit      -0.001709
 **** Fit      -0.001384
 **** Fit      -0.001005
 **** Fit      -0.000684
 **** Fit      -0.001870
 **** Fit      -0.001955
 **** Fit      -0.001989
 **** Fit      -0.001568
 **** Fit      -0.001395
 **** Fit      -0.001135
 **** Fit      -0.000859
 **** Fit      -0.001504
 **** Fit      -0.001597
 **** Fit      -0.001630
 **** Fit      -0.001114
 **** Fit      -0.000966
 **** Fit      -0.000741
 **** Fit      -0.001059
 **** Fit      -0.001145
 **** Fit      -0.000559
 **** Fit      -0.000443
 **** Fit      -0.000346
 **** Fit      -0.000532
 **** Fit       0.000078
 **** Fit       0.000594
 **** Fit       0.000205
 **** Fit       0.000741
 **** Fit       0.001054
 **** Fit       0.000192
 **** Fit      -0.000158
 **** Fit      -0.000186
 **** Fit      -0.000295
 **** Fit      -0.000515
 **** Fit      -0.000452
 **** Fit      -0.000426
 **** Fit      -0.000441
 **** Fit      -0.000769
 **** Fit      -0.000682
 **** Fit      -0.000559
 **** Fit      -0.000435
 **** Fit      -0.000316
 **** Fit      -0.000191
 **** Fit      -0.000765
 **** Fit      -0.000680
 **** Fit      -0.000533
 **** Fit      -0.000351
 **** Fit      -0.000143
 **** Fit       0.000095
 **** Fit       0.000373
 **** Fit      -0.000565
 **** Fit      -0.000607
 **** Fit      -0.000531
 **** Fit      -0.000370
 **** Fit      -0.000145
 **** Fit       0.000136
 **** Fit       0.000473
 **** Fit       0.000862
 **** Fit      -0.000303
 **** Fit      -0.000376
 **** Fit      -0.000313
 **** Fit      -0.000139
 **** Fit       0.000129
 **** Fit       0.000482
 **** Fit       0.000910
 **** Fit       0.001382
 **** Fit       0.001826
 **** Fit       0.000224
 **** Fit      -0.000046
 **** Fit      -0.000153
 **** Fit      -0.000106
 **** Fit       0.000077
 **** Fit       0.000380
 **** Fit       0.000785
 **** Fit       0.001261
 **** Fit       0.000851
 **** Fit       0.000408
 **** Fit       0.000107
 **** Fit      -0.000014
 **** Fit       0.000041
 **** Fit       0.000257
 **** Fit       0.002525
 **** Fit       0.001553
 **** Fit       0.001751
 **** Fit       0.000891
 **** Fit       0.001064
 **** Fit       0.000616
 **** Fit       0.000314
 **** Fit       0.000472
 **** Fit       0.000545
 **** Fit      -0.000155
 **** Fit       0.000094
 **** Fit      -0.000197
 **** Fit      -0.000038
 **** Fit       0.000079
 **** Fit      -0.000660
 **** Fit      -0.000540
 **** Fit      -0.000374
 **** Fit      -0.000668
 **** Fit      -0.000485
 **** Fit      -0.000300
 **** Fit      -0.000124
 **** Fit      -0.000564
 **** Fit      -0.000831
 **** Fit      -0.000944
 **** Fit      -0.000931
 **** Fit      -0.000827
 **** Fit      -0.001128
 **** Fit      -0.000895
 **** Fit      -0.000612
 **** Fit      -0.000290
 **** Fit       0.000024
 **** Fit      -0.000582
 **** Fit      -0.001018
 **** Fit      -0.001267
 **** Fit      -0.001347
 **** Fit      -0.001288
 **** Fit      -0.001590
 **** Fit      -0.001290
 **** Fit      -0.000889
 **** Fit      -0.000395
 **** Fit       0.000190
 **** Fit      -0.001663
 **** Fit      -0.001804
 **** Fit      -0.001770
 **** Fit      -0.002048
 **** Fit      -0.001658
 **** Fit      -0.001114
 **** Fit      -0.000425
 **** Fit       0.000400
 **** Fit      -0.002267
 **** Fit       0.000341
 **** Fit       0.000447
 **** Fit       0.000694
 **** Fit       0.001016
 **** Fit       0.001481
 **** Fit       0.000976
 **** Fit       0.000584
 **** Fit       0.000321
 **** Fit       0.000192
 **** Fit       0.000193
 **** Fit       0.000309
 **** Fit       0.000501
 **** Fit       0.002704
 **** Fit       0.002072
 **** Fit       0.001219
 **** Fit       0.000781
 **** Fit       0.000421
 **** Fit       0.000151
 **** Fit      -0.000021
 **** Fit      -0.000093
 **** Fit      -0.000072
 **** Fit       0.000023
 **** Fit       0.001709
 **** Fit       0.000893
 **** Fit       0.000541
 **** Fit       0.000226
 **** Fit      -0.000039
 **** Fit      -0.000244
 **** Fit      -0.000379
 **** Fit      -0.000437
 **** Fit       0.001260
 **** Fit       0.000553
 **** Fit       0.000299
 **** Fit       0.000042
 **** Fit      -0.000203
 **** Fit      -0.000422
 **** Fit      -0.000598
 **** Fit      -0.000708
 **** Fit       0.000246
 **** Fit       0.000089
 **** Fit      -0.000107
 **** Fit      -0.000325
 **** Fit      -0.000543
 **** Fit      -0.000729
 **** Fit       0.000011
 **** Fit      -0.000036
 **** Fit      -0.000162
 **** Fit      -0.000342
 **** Fit      -0.000539
 **** Fit      -0.000036
 **** Fit      -0.000073
 **** Fit      -0.000195
 **** Fit      -0.000347
 **** Fit       0.000117
 **** Fit       0.000182
 **** Fit       0.000130
 **** Fit       0.000438
 **** Fit       0.000617
 **** Fit       0.001459
 **** Fit       0.001009
 **** Fit       0.000633
 **** Fit       0.000684
 **** Fit       0.000371
 **** Fit       0.000013
 **** Fit       0.000522
 **** Fit       0.000253
 **** Fit      -0.000057
 **** Fit      -0.000354
 **** Fit       0.000523
 **** Fit       0.000270
 **** Fit      -0.000013
 **** Fit      -0.000278
 **** Fit      -0.000482
 **** Fit       0.000665
 **** Fit       0.000405
 **** Fit       0.000135
 **** Fit      -0.000106
 **** Fit      -0.000280
 **** Fit      -0.000361
 **** Fit      -0.000336
 **** Fit       0.000915
 **** Fit       0.000621
 **** Fit       0.000338
 **** Fit       0.000103
 **** Fit      -0.000049
 **** Fit      -0.000093
 **** Fit      -0.000022
 **** Fit       0.000141
 **** Fit       0.001182
 **** Fit       0.001232
 **** Fit       0.000872
 **** Fit       0.000545
 **** Fit       0.000295
 **** Fit       0.000159
 **** Fit       0.000162
 **** Fit       0.000309
 **** Fit       0.000567
 **** Fit       0.001579
 **** Fit       0.001571
 **** Fit       0.001129
 **** Fit       0.000742
 **** Fit       0.000458
 **** Fit       0.000318
 **** Fit       0.000347
 **** Fit       0.000551
 **** Fit       0.000900
 **** Fit       0.001299
 **** Fit       0.002013
 **** Fit       0.001883
 **** Fit       0.002419
 **** Fit       0.001765
 **** Fit       0.000935
 **** Fit       0.000693
 **** Fit       0.000546
 **** Fit       0.000176
 **** Fit       0.000134
 **** Fit       0.000177
 **** Fit       0.000316
 **** Fit       0.000572
 **** Fit       0.000874
 **** Fit       0.001450
 **** Fit      -0.000442
 **** Fit      -0.000338
 **** Fit      -0.000162
 **** Fit       0.000087
 **** Fit       0.000425
 **** Fit       0.000705
 **** Fit       0.001301
 **** Fit       0.002020
 **** Fit      -0.000935
 **** Fit      -0.000737
 **** Fit      -0.000478
 **** Fit      -0.000162
 **** Fit       0.000224
 **** Fit       0.000468
 **** Fit       0.001033
 **** Fit      -0.001260
 **** Fit      -0.001016
 **** Fit      -0.000721
 **** Fit      -0.000384
 **** Fit       0.000004
 **** Fit       0.000184
 **** Fit       0.000669
 **** Fit      -0.001387
 **** Fit      -0.001145
 **** Fit      -0.000864
 **** Fit      -0.000558
 **** Fit      -0.000217
 **** Fit      -0.000124
 **** Fit      -0.001150
 **** Fit      -0.000927
 **** Fit      -0.000690
 **** Fit      -0.000431
 **** Fit      -0.000981
 **** Fit      -0.000860
 **** Fit      -0.000740
 **** Fit      -0.000612
 **** Fit      -0.000614
 **** Fit      -0.000638
 **** Fit      -0.000687
 **** Fit      -0.000267
 **** Fit       0.000557
 **** Fit       0.001090
 **** Fit       0.001606
 **** Fit       0.000035
 **** Fit       0.000420
 **** Fit       0.000795
 **** Fit      -0.000307
 **** Fit       0.000119
 **** Fit       0.000388
 **** Fit       0.000622
 **** Fit      -0.000382
 **** Fit      -0.000322
 **** Fit      -0.000136
 **** Fit       0.000281
 **** Fit       0.000469
 **** Fit       0.000605
 **** Fit       0.000034
 **** Fit      -0.000088
 **** Fit      -0.000054
 **** Fit       0.000088
 **** Fit       0.000505
 **** Fit       0.000651
 **** Fit       0.000734
 **** Fit       0.000582
 **** Fit       0.000292
 **** Fit       0.000182
 **** Fit       0.000217
 **** Fit       0.000343
 **** Fit       0.000777
 **** Fit       0.000925
 **** Fit       0.001002
 **** Fit       0.001801
 **** Fit       0.001157
 **** Fit       0.000707
 **** Fit       0.000460
 **** Fit       0.000390
 **** Fit       0.000456
 **** Fit       0.000603
 **** Fit       0.001085
 **** Fit       0.001283
 **** Fit       0.001394
 **** Fit       0.000508
 **** Fit       0.000506
 **** Fit       0.000639
 **** Fit       0.000851
 **** Fit       0.001416
 **** Fit       0.001703
 **** Fit       0.001887
 **** Fit       0.000767
 **** Fit       0.001084
 **** Fit       0.001751
 **** Fit       0.002156
 -----------------------------------------------------------------
 Leave Link  602 at Mon May 27 21:29:02 2024, MaxMem= 13421772800 cpu:              28.3 elap:               0.8

 Test job not archived.
 1\1\GINC-COMPUTE38\SP\RwB97XD\6-31+G\C70\ZL3289\27-May-2024\0\\# wb97x
 d/6-31+g iop(6/33=2) iop(6/42=6) pop=mk iop(6/50=1)\\C70\\0,1\C,0,20.8
 83928,22.343891,32.271641\C,0,22.007698,21.985733,33.07798\C,0,23.0532
 3,21.704769,32.169556\C,0,22.577967,21.859341,30.844439\C,0,21.222982,
 22.277924,30.945997\C,0,22.36619,22.706448,34.2075\C,0,23.695646,23.06
 0257,34.413929\C,0,24.708035,22.776093,33.522926\C,0,24.344591,22.1280
 78,32.377724\C,0,25.166382,22.657536,31.341051\C,0,24.696474,22.725147
 ,29.996202\C,0,23.378675,22.373672,29.809771\C,0,22.891518,23.255558,2
 8.907745\C,0,21.533037,23.655693,29.005903\C,0,20.745378,23.1931,30.04
 6457\C,0,19.972389,24.198952,30.450674\C,0,19.613848,24.290474,31.7201
 4\C,0,20.057135,23.362049,32.668617\C,0,20.350685,24.1077,33.872082\C,
 0,21.519655,23.769192,34.60413\C,0,19.629122,25.609539,32.272305\C,0,2
 0.118351,25.449162,33.602158\C,0,23.660839,24.395679,34.977158\C,0,22.
 299723,24.808929,35.045235\C,0,20.218784,25.306938,29.609127\C,0,21.22
 5964,24.968048,28.766163\C,0,23.857674,24.182106,28.543537\C,0,24.9289
 15,23.865601,29.266342\C,0,26.059792,23.566582,31.910547\C,0,25.720722
 ,23.685898,33.215645\C,0,25.705584,24.994877,33.853745\C,0,24.695545,2
 5.358356,34.740383\C,0,21.973803,26.157894,34.822777\C,0,20.832626,26.
 491062,34.134499\C,0,19.876572,26.767086,31.479589\C,0,20.143219,26.57
 3524,30.121931\C,0,23.532402,25.475182,28.215467\C,0,22.221176,25.8736
 99,28.36071\C,0,26.3999,24.685642,31.126448\C,0,25.825453,24.81665,29.
 830782\C,0,26.327793,26.026154,33.134457\C,0,26.693338,25.862732,31.79
 4333\C,0,22.99581,27.124504,34.955555\C,0,24.327213,26.699783,34.91333
 4\C,0,20.762173,27.748814,33.469845\C,0,20.26902,27.865562,32.219425\C
 ,0,25.583082,26.063637,29.312107\C,0,24.546032,26.435925,28.474508\C,0
 ,21.956009,27.237904,28.63493\C,0,20.90094,27.587029,29.521055\C,0,21.
 27696,28.736088,30.187086\C,0,20.969736,28.894165,31.550804\C,0,21.794
 472,28.619305,33.5835\C,0,22.868536,28.369858,34.381954\C,0,24.993511,
 27.774715,34.243526\C,0,26.006475,27.394382,33.308918\C,0,26.545288,27
 .104416,31.183249\C,0,25.980385,27.227489,29.899582\C,0,22.926844,28.1
 92192,28.770254\C,0,24.237309,27.737694,28.728178\C,0,26.159338,28.052
 982,32.115276\C,0,25.183519,28.282669,29.569092\C,0,22.503679,29.11108
 8,29.689255\C,0,21.865486,29.427555,32.45594\C,0,24.12254,28.824005,33
 .944897\C,0,23.185394,29.801842,31.967117\C,0,24.291946,29.514839,32.7
 6524\C,0,25.320099,29.115875,31.84074\C,0,23.465157,29.614967,30.60028
 1\C,0,24.814474,29.219101,30.547144\\Version=ES64L-G16RevB.01\State=1-
 A\HF=-2665.5274563\RMSD=5.028e-09\Dipole=0.0396385,-0.0775755,0.018547
 1\Quadrupole=0.4535088,-0.5145018,0.060993,0.3596351,-0.5871479,-0.606
 9558\PG=C01 [X(C70)]\\@


 ... SUBJECTS WHICH DISCLOSE THEIR FULL POWER, MEANING AND BEAUTY AS SOON
 AS THEY ARE PRESENTED TO THE MIND HAVE VERY LITTLE OF THOSE QUALITIES
 TO DISCLOSE.
                           -- CHARLES DUTTON (1882)
 Job cpu time:       0 days  9 hours 10 minutes 56.2 seconds.
 Elapsed time:       0 days  0 hours 14 minutes  7.5 seconds.
 File lengths (MBytes):  RWF=    428 Int=      0 D2E=      0 Chk=     56 Scr=      1
 Normal termination of Gaussian 16 at Mon May 27 21:29:03 2024.
