You are running Q-Chem version: 4.4.2

#
# job setting
#
local host:  argon22
current dir: /gpfsnyu/xspace/projects/PCT-example/triad/results/triad_conf3/QC/mulliken
input file:  triad_conf3.inp
output file: 
nprocs     : 1
nthreads   : 96
#
# qchem installation setting
#
QC:          /gpfsnyu/packages/qchem/4.4
QCAUX:       /gpfsnyu/packages/qchem/4.4/qcaux
QCPROG:      /gpfsnyu/packages/qchem/4.4/exe/qcprog.exe
QCPROG_S:    /gpfsnyu/packages/qchem/4.4/exe/qcprog.exe_s
PARALLEL:    -DPARALLEL
QCMPI:       mpich
#
# qchem directory setting
#
qcrun:       qchem217032
QCSCRATCH:   /tmp/xs13_9697720
QCLOCALSCR:  /tmp
QCTMPDIR:    /tmp
QCFILEPREF:  /tmp/qchem217032
QCSAVEDIR:   
workdirs:    /tmp/qchem217032
workdir0:    /tmp/qchem217032
partmpdirs =  
#
# parallel setting
#
QCRSH:           ssh
QCMPI:           mpich
QCMPIRUN:        /gpfsnyu/packages/qchem/4.4/bin/mpi/mpirun_qchem
QCMACHINEFILE:   /gpfsnyu/packages/qchem/4.4/bin/mpi/machines


#
# env setting
#
exported envs:   QC QCAUX QCSCRATCH QCRUNNAME QCFILEPREF QCPROG QCPROG_S GUIFILE

Running Job 1 of 1 triad_conf3.inp
qchem triad_conf3.inp_217032.0 /tmp/qchem217032/ 1
/gpfsnyu/packages/qchem/4.4/bin/mpi/mpirun_qchem -machinefile /gpfsnyu/packages/qchem/4.4/bin/mpi/machines -np 1 /gpfsnyu/packages/qchem/4.4/exe/qcprog.exe triad_conf3.inp_217032.0 /tmp/qchem217032/

Process 0 of 1 is on argon22 - thread support 0
initial socket setup ...start
initial socket setup ...done 
now start server 0 ... 
Check license passed

                  Welcome to Q-Chem
     A Quantum Leap Into The Future Of Chemistry


 Q-Chem 4.4, Q-Chem, Inc., Pleasanton, CA (2016)

 Y. Shao,  Z. Gan,  E. Epifanovsky,  A. T. B. Gilbert,  M. Wormit,  
 J. Kussmann,  A. W. Lange,  A. Behn,  J. Deng,  X. Feng,  D. Ghosh,  
 M. Goldey,  P. R. Horn,  L. D. Jacobson,  I. Kaliman,  F. Rob,  
 R. Z. Khaliullin,  T. Kus,  A. Landau,  J. Liu,  E. I. Proynov,  Y. M. Rhee,  
 R. M. Richard,  M. A. Rohrdanz,  R. P. Steele,  E. J. Sundstrom,  
 H. L. Woodcock III,  P. M. Zimmerman,  D. Zuev,  B. Albrecht,  E. Alguire,  
 B. Austin,  S. A. Baeppler,  G. J. O. Beran,  Y. A. Bernard,  E. Berquist,  
 K. Brandhorst,  K. B. Bravaya,  S. T. Brown,  D. Casanova,  C.-M. Chang,  
 Y. Chen,  S. H. Chien,  K. D. Closser,  M. P. Coons,  D. L. Crittenden,  
 S. Dasgupta,  M. Diedenhofen,  R. A. DiStasio Jr.,  H. Do,  A. D. Dutoi,  
 R. G. Edgar,  P.-T. Fang,  S. Fatehi,  Q. Feng,  L. Fusti-Molnar,  
 A. Ghysels,  A. Golubeva-Zadorozhnaya,  J. Gomes,  A. Gunina,  
 M. W. D. Hanson-Heine,  P. H. P. Harbach,  A. W. Hauser,  J. E. Herr,  
 E. G. Hohenstein,  Z. C. Holden,  K. Hui,  T.-C. Jagau,  H. Ji,  B. Kaduk,  
 K. Khistyaev,  Jaehoon Kim,  Jihan Kim,  R. A. King,  P. Klunzinger,  
 K. Koh,  D. Kosenkov,  T. Kowalczyk,  C. M. Krauter,  A. Kunitsa,  
 K. U. Lao,  A. Laurent,  K. V. Lawler,  J. Lee,  D. Lefrancois,  S. Lehtola,  
 S. V. Levchenko,  C. Y. Lin,  Y.-S. Lin,  F. Liu,  E. Livshits,  
 R. C. Lochan,  A. Luenser,  P. Manohar,  S. F. Manzer,  S.-P. Mao,  Y. Mao,  
 N. Mardirossian,  A. V. Marenich,  L. A. Martinez-Martinez,  S. A. Maurer,  
 N. J. Mayhall,  J.-M. Mewes,  A. F. Morrison,  K. Nanda,  T. S. Nguyen-Beck,  
 C. M. Oana,  R. Olivares-Amaya,  D. P. O'Neill,  J. A. Parkhill,  
 T. M. Perrine,  R. Peverati,  P. A. Pieniazek,  F. Plasser,  A. Prociuk,  
 D. R. Rehn,  E. Rosta,  N. J. Russ,  N. Sergueev,  S. M. Sharada,  
 S. Sharma,  D. W. Small,  A. Sodt,  T. Stauch,  T. Stein,  D. Stuck,  
 Y.-C. Su,  A. J. W. Thom,  T. Tsuchimochi,  L. Vogt,  O. Vydrov,  T. Wang,  
 M. A. Watson,  J. Wenzel,  A. White,  C. F. Williams,  V. Vanovschi,  
 K. Yao,  S. Yeganeh,  S. R. Yost,  Z.-Q. You,  I. Y. Zhang,  X. Zhang,  
 Y. Zhao,  B. R. Brooks,  G. K. L. Chan,  D. M. Chipman,  C. J. Cramer,  
 W. A. Goddard III,  M. S. Gordon,  W. J. Hehre,  A. Klamt,  
 H. F. Schaefer III,  M. W. Schmidt,  C. D. Sherrill,  D. G. Truhlar,  
 A. Warshel,  X. Xu,  A. Aspuru-Guzik,  R. Baer,  A. T. Bell,  N. A. Besley,  
 J.-D. Chai,  A. Dreuw,  B. D. Dunietz,  T. R. Furlani,  S. R. Gwaltney,  
 C.-P. Hsu,  Y. Jung,  J. Kong,  D. S. Lambrecht,  W. Liang,  C. Ochsenfeld,  
 V. A. Rassolov,  L. V. Slipchenko,  J. E. Subotnik,  T. Van Voorhis,  
 J. M. Herbert,  A. I. Krylov,  P. M. W. Gill,  M. Head-Gordon

 Contributors to earlier versions of Q-Chem not listed above: 
 R. D. Adamson,  J. Baker,  E. F. C. Byrd,  A. K. Chakraborty,  C.-L. Cheng,  
 H. Dachsel,  R. J. Doerksen,  G. Hawkins,  A. Heyden,  S. Hirata,  
 G. Kedziora,  F. J. Keil,  C. Kelley,  P. P. Korambath,  W. Kurlancheek,  
 A. M. Lee,  M. S. Lee,  D. Liotard,  I. Lotan,  P. E. Maslen,  N. Nair,  
 D. Neuhauser,  R. Olson,  B. Peters,  J. Ritchie,  N. E. Schultz,  
 N. Shenvi,  A. C. Simmonett,  K. S. Thanthiriwatte,  Q. Wu,  W. Zhang

 Please cite Q-Chem as follows:
 Y. Shao et al., Mol. Phys. 113, 184-215 (2015)
 DOI: 10.1080/00268976.2014.952696

 Q-Chem 4.4.2 for Intel X86 Linux

 Parts of Q-Chem use Armadillo 5.200.1 (Boston Tea Smuggler).
 http://arma.sourceforge.net/

 Q-Chem begins on Thu Jun 20 23:39:20 2024  

Host: 
0

     Scratch files written to /tmp/qchem217032//
 Dec716 11556_ 22328  22283 6803   
 Parallel job on  1  processors
Processing $rem in /gpfsnyu/packages/qchem/4.4/config/preferences.
 MEM_TOTAL  2000 
The previous job contains 0 fragments, simply inherited here
FILE_GEOM_ORG=        593

Checking the input file for inconsistencies... 	...done.

--------------------------------------------------------------
User input:
--------------------------------------------------------------
$molecule
read                  triad_conf3.txt
$end

$rem
JOBTYPE               sp        ! single point charge calculation
EXCHANGE              general   !
CORRELATION           none      !
BASIS                 SV        !
SYM_IGNORE            TRUE      !
purecart              2111      !
separate_jk           TRUE      !
derscreen             FALSE     !
ideriv                0         !
OMEGA                 157       ! geometric parameter tuned for geometry
MAX_SCF_CYCLES        5000      !
scf_convergence       8         ! for SP, default is 5 ; for opt/freq, default is 8
CIS_DYNAMIC_MEM       True      ! using dynamic memory for large TDDFT calculation
MEM_STATIC            16000     ! static memory for storing data.
MEM_TOTAL             180000    !
max_cis_cycles        500000    !
CIS_N_ROOTS           25        ! number of excited states
CIS_SINGLETS          true      ! compute singlet excited states, default is true
CIS_TRIPLETS          false     ! compute triplet excited states, default is true
RPA                   false     ! false: TDA-DFT, true: TDA- and TDDFT , 2: TDDFT
sts_fcd               true      ! compute electronic couplings with FCD method
sts_donor             61-207    ! donor atom index
sts_acceptor          1-60      ! acceptor atom index
POP_MULLIKEN          -1        ! get Mulliken Charge for ground and excited states
$end

$xc_functional
X HF 1.0
X BNL 1.0
C LYP 1.0
$end

--------------------------------------------------------------
 ----------------------------------------------------------------
             Standard Nuclear Orientation (Angstroms)
    I     Atom           X                Y                Z
 ----------------------------------------------------------------
    1      C      40.0354232788    34.0774765015    50.6230583191
    2      C      39.3375015259    39.2456588745    54.4122352600
    3      C      37.7822418213    37.7505607605    53.7549095154
    4      C      37.7874031067    35.5453605652    52.8895454407
    5      C      41.7508468628    39.4723320007    54.5249443054
    6      C      40.5537376404    39.8450775146    53.9777030945
    7      C      40.5060310364    37.8795623779    55.8136940002
    8      C      38.6960906982    35.9232559204    55.0635795593
    9      C      41.0207328796    33.3150634766    52.4584770203
   10      C      41.7626724243    38.4628143311    55.4941520691
   11      C      39.0670547485    33.9857864380    51.5865974426
   12      C      44.0527305603    37.9965400696    52.3011512756
   13      C      42.7496833801    39.5299530029    53.5501518250
   14      C      43.9683799744    35.8060226440    51.4200782776
   15      C      43.0775718689    34.2826156616    53.0861396790
   16      C      43.3669319153    34.6029853821    51.7157249451
   17      C      43.7245788574    37.4989662170    54.4290809631
   18      C      40.7547073364    36.4983558655    55.9989738464
   19      C      39.8762168884    35.4876174927    55.5981025696
   20      C      41.6049079895    34.0674552917    54.7649269104
   21      C      38.9829292297    38.7133827209    49.7577323914
   22      C      40.1545410156    39.5685310364    50.3603096008
   23      C      38.1704521179    38.4735908508    51.0485954285
   24      C      38.6760444641    39.2681312561    52.0732231140
   25      C      42.4195785522    35.2759780884    49.8457221985
   26      C      41.4932441711    39.1472244263    50.1946067810
   27      C      38.1766128540    35.0393142700    51.6707954407
   28      C      43.4591865540    38.4987754822    51.1482124329
   29      C      42.1367835999    39.9597244263    52.3849754333
   30      C      43.3621940613    36.2272262573    50.2890357971
   31      C      37.6630554199    37.2157287598    51.3532447815
   32      C      44.0663032532    36.3325576782    53.7662162781
   33      C      43.5657615662    35.1439590454    54.0991935730
   34      C      40.2840576172    34.3243522644    55.0118217468
   35      C      42.0673828125    36.3100318909    55.6779594421
   36      C      39.4642829895    37.4135932922    49.0364570618
   37      C      40.9692649841    37.1057205200    49.1097755432
   38      C      39.0223922729    36.0454673767    49.6683006287
   39      C      41.1881484985    35.7077560425    49.2804908752
   40      C      41.9584503174    33.5942916870    53.4626121521
   41      C      39.7878227234    39.9566802979    51.6795387268
   42      C      38.1661186218    36.0762863159    50.7779426575
   43      C      39.9807434082    35.1283073425    49.6733741760
   44      C      37.4775962830    36.8892326355    52.7195243835
   45      C      42.4313430786    34.2378005981    50.7722816467
   46      C      41.8876113892    38.0258789062    49.5702934265
   47      C      42.4932136536    39.4233322144    51.2034645081
   48      C      38.4553260803    38.9234352112    53.4182853699
   49      C      40.7657241821    40.1904258728    52.6346931458
   50      C      42.5391616821    35.1029701233    55.1218376160
   51      C      43.0781974792    37.6250152588    50.1629600525
   52      C      41.2275314331    33.6424789429    51.1443061829
   53      C      39.3101959229    38.1985893250    55.2638740540
   54      C      38.4037094116    37.2587623596    54.8842811584
   55      C      38.3203582764    35.0577659607    54.0585289001
   56      C      39.6648368835    33.5284233093    52.7619132996
   57      C      43.7452468872    38.5437545776    53.5374488831
   58      C      44.2588882446    36.6584014893    52.4528160095
   59      C      39.3271598816    34.0234298706    54.0280036926
   60      C      42.7351646423    37.4634170532    55.4076881409
   61      C      38.0670280457    39.3503799438    48.6803474426
   62      N      38.0410423279    38.6975517273    47.5675086975
   63      C      38.8936996460    37.5009269714    47.5827980042
   64      H      39.7679786682    37.5710716248    46.9305915833
   65      H      38.2552642822    36.6205635071    47.4731407166
   66      C      36.8987884521    43.5469360352    48.4453773499
   67      C      37.0632934570    42.9184722900    49.7161598206
   68      H      36.8763275146    43.3872375488    50.6788978577
   69      C      37.4520301819    41.5589981079    49.7039299011
   70      H      37.3500518799    41.0039329529    50.6329460144
   71      C      37.6860923767    40.8308219910    48.5706520081
   72      C      37.1694374084    42.8418045044    47.2564888000
   73      H      37.2353706360    43.3188133240    46.2819709778
   74      C      37.5735244751    41.4632225037    47.3057289124
   75      H      37.8775444031    40.8281631470    46.4775733948
   76      C      36.4470558167    44.9889793396    48.4549140930
   77      C      36.1618041992    45.6734390259    49.7085609436
   78      C      35.2735481262    45.4148406982    50.7537193298
   79      H      34.5723228455    44.5951423645    50.8703422546
   80      C      35.4127960205    46.4666175842    51.7074470520
   81      H      34.7789382935    46.6542587280    52.5678215027
   82      C      36.5077247620    47.2139015198    51.2673377991
   83      N      36.8784561157    46.7286949158    50.0700645447
   84      H      37.6741371155    47.1329231262    49.5950737000
   85      C      36.9818458557    48.4485816956    51.7833213806
   86      H      36.5460739136    48.7651481628    52.7297935486
   87      C      37.9546394348    49.2711791992    51.2820854187
   88      C      38.3554306030    50.4498786926    51.9450111389
   89      H      38.0185699463    50.7914886475    52.9181709290
   90      C      39.1856193542    51.0529403687    51.0890998840
   91      H      39.8032455444    51.9089965820    51.3399696350
   92      C      39.3793754578    50.1290702820    49.9375343323
   93      N      38.4826316833    49.1346778870    50.0260047913
   94      C      40.1786880493    50.3927001953    48.7626838684
   95      C      39.6458015442    50.2701072693    47.4801521301
   96      C      39.6684455872    51.1100463867    46.3260612488
   97      H      40.2832145691    51.9764976501    46.1057395935
   98      C      38.7210006714    50.6219291687    45.4483757019
   99      H      38.5144500732    51.0854988098    44.4893760681
  100      C      38.1628074646    49.4025154114    45.8914833069
  101      N      38.6912803650    49.3176918030    47.1224250793
  102      H      38.5034523010    48.4906120300    47.6726799011
  103      C      37.3843803406    48.5420150757    45.2974739075
  104      H      37.1781730652    48.7810516357    44.2552375793
  105      C      36.8882942200    47.2838897705    45.8086280823
  106      C      35.9420585632    46.3675117493    45.2803916931
  107      H      35.4601554871    46.6082839966    44.3385734558
  108      C      35.6696891785    45.3721885681    46.1845207214
  109      H      34.8715858459    44.6455116272    46.0740470886
  110      C      36.5238647461    45.6212081909    47.2113533020
  111      N      37.2249450684    46.7114791870    46.9919853210
  112      C      44.3698692322    51.2161941528    49.5163612366
  113      C      43.9037017822    51.2548980713    48.2117424011
  114      H      44.5987014771    51.5583152771    47.4329643250
  115      C      42.5376510620    50.9619064331    48.0142326355
  116      H      42.1130332947    50.9326477051    47.0140266418
  117      C      41.6249275208    50.5899620056    49.0572700500
  118      C      43.5609664917    50.8213119507    50.5692558289
  119      H      44.0526618958    50.8394737244    51.5385246277
  120      C      42.2030220032    50.4961166382    50.3825035095
  121      H      41.6941680908    50.1613235474    51.2828102112
  122      N      45.7144050598    51.5772132874    49.8264884949
  123      H      46.2441368103    50.8552131653    50.2914390564
  124      C      46.3673248291    52.7218513489    49.4325752258
  125      O      45.7272682190    53.5048751831    48.7146339417
  126      C      47.7668151855    52.9835205078    49.9104957581
  127      C      48.6333236694    53.6718559265    49.1291313171
  128      H      48.1996383667    53.9406394958    48.1693153381
  129      C      49.9333648682    53.9222106934    49.4703559875
  130      C      50.2866363525    53.6131591797    50.8218269348
  131      H      51.2892303467    53.8970298767    51.1313285828
  132      C      49.5198059082    52.8598289490    51.6412925720
  133      H      49.8192520142    52.6221008301    52.6588325500
  134      C      48.2217864990    52.6074295044    51.2399864197
  135      H      47.5856781006    51.9414291382    51.8173789978
  136      C      50.9090194702    54.4949302673    48.5506782532
  137      H      50.3911743164    54.6442718506    47.6043891907
  138      C      52.2227020264    54.8074569702    48.7316932678
  139      H      52.5956802368    54.6166610718    49.7368812561
  140      C      53.2118301392    55.2492675781    47.7645759583
  141      C      52.7480545044    55.1227645874    46.3477668762
  142      H      51.9081268311    54.4342727661    46.2339057922
  143      H      53.4808731079    54.5973014832    45.7318687439
  144      H      52.6147918701    56.1424407959    45.9803962708
  145      C      54.5160522461    55.4657897949    48.0210227966
  146      H      54.7849426270    55.4776382446    49.0762367249
  147      C      55.5187530518    55.7123336792    47.0043907166
  148      H      55.2420043945    55.8423080444    45.9591941833
  149      C      56.7870330811    56.0032272339    47.2704582214
  150      H      57.0867919922    55.9341964722    48.3151130676
  151      C      57.9219970703    56.3962020874    46.5211601257
  152      C      58.2441329956    55.5998458862    45.2760734558
  153      H      57.4816207886    54.8210525513    45.2089805603
  154      H      58.2547149658    56.2850189209    44.4258384705
  155      H      59.1562805176    55.0261306763    45.4530143738
  156      C      58.8243331909    57.2888183594    47.0005378723
  157      H      58.4545059204    57.8941421509    47.8268241882
  158      C      60.0394973755    57.7132873535    46.2731895447
  159      H      60.1955413818    57.4872131348    45.2194099426
  160      C      60.9815063477    58.4926300049    46.9029121399
  161      H      60.8648300171    58.7879028320    47.9446067810
  162      C      62.3266372681    58.9687500000    46.3968925476
  163      H      62.4378280640    58.7128219604    45.3442497253
  164      C      63.2137145996    59.8088607788    46.9550132751
  165      C      62.8637542725    60.5107345581    48.2898292542
  166      H      61.8711318970    60.9563369751    48.1971321106
  167      H      62.6499862671    59.8456420898    49.1291313171
  168      H      63.6334609985    61.1590118408    48.7137947083
  169      C      64.3884201050    60.2743453979    46.2040061951
  170      H      64.5033721924    59.9164352417    45.1819419861
  171      C      65.5571136475    60.8038864136    46.6505241394
  172      H      65.6901702881    60.7955093384    47.7313270569
  173      C      66.8042068481    61.0444869995    45.8471031189
  174      H      66.7086410522    60.8514938354    44.7796058655
  175      C      68.0120697021    61.4464492798    46.2904624939
  176      C      68.4663772583    61.7874221802    47.6376228333
  177      H      67.5901184082    61.5910263062    48.2589683533
  178      H      69.2062606812    60.9910430908    47.7416496277
  179      H      68.8741226196    62.7997665405    47.6743965149
  180      C      69.1084442139    61.6901550293    45.3208656311
  181      H      69.9714355469    62.2425842285    45.6896400452
  182      C      69.1534576416    61.2274246216    44.0655250549
  183      H      68.3561553955    60.6046905518    43.6625022888
  184      C      70.2929534912    61.5349426270    43.1423530579
  185      C      71.5845184326    61.3934402466    43.3867835999
  186      C      72.1784896851    60.7833557129    44.6870765686
  187      H      72.9077377319    59.9811630249    44.5561256409
  188      H      72.7520599365    61.5001678467    45.2784004211
  189      H      71.4012832642    60.3035507202    45.2855720520
  190      C      72.6597671509    61.7304000854    42.4492607117
  191      H      73.5013885498    61.0350799561    42.4235267639
  192      H      72.9391403198    62.6954193115    42.8772315979
  193      C      72.2086944580    61.8342971802    41.0248832703
  194      H      72.1416702271    60.8909454346    40.4789314270
  195      H      72.9668731689    62.2983398438    40.3906135559
  196      C      70.9324798584    62.6505050659    40.9287681580
  197      H      71.0923843384    63.6596984863    41.3140449524
  198      H      70.6331710815    62.7740859985    39.8858909607
  199      C      69.8223876953    61.9744415283    41.7014350891
  200      C      68.6898269653    62.9339447021    41.8104515076
  201      H      68.9211349487    63.8601531982    42.3406333923
  202      H      68.3896560669    63.2328491211    40.8039588928
  203      H      67.7638320923    62.5764007568    42.2656059265
  204      C      69.2917175293    60.7964096069    40.8260536194
  205      H      69.0398788452    61.1254119873    39.8157157898
  206      H      70.0665740967    60.0303497314    40.8982582092
  207      H      68.3942337036    60.3436431885    41.2526435852
 ----------------------------------------------------------------
 Nuclear Repulsion Energy = 24565.5288905621 hartrees
 There are      455 alpha and      455 beta electrons

 Q-Chem warning in module /home/scratch/svnadmin/11556_zgan/qchem/forms1/BasisType.C, line 1555:

 You are not using the predefined 5D/6D in this basis set.

 Requested basis set is SV
 There are 831 shells and 1387 basis functions

 Total QAlloc Memory Limit 180000 MB
 Mega-Array Size     15641 MB
 MEM_STATIC part     16000 MB
 A cutoff of  1.0D-11 yielded  75804 shell pairs
 There are    245798 function pairs
 
 -------------------------------------------------------
 OpenMP Integral Computing Module                       
 Release: version 1.0, May 2013, Q-Chem Inc. Pittsburgh 
 -------------------------------------------------------
 Integral Job Info:
 Integral job number is                      11
 Integral operator is                         1
 short-range coefficients                     0
 long-range coefficients              100000000
 Omega coefficients                         157
 if combine SR and LR in K                    0
 Integral screening is                        0
 Integral computing path is                   2
 max size of driver memory is            800000
 size of driver memory is                 45569
 size of scratch memory is              4685044
 max col of scratch BK array                289
 max len of scratch array in speh3           22
 max len of scratch index in speh4            8
 max int batch size is                      520
 min int batch size is                       52
 fixed nKL is                                52
 max L of basis functions is                  1
 order of int derivative is                   0
 number of shells is                        831
 number of basis is                        1387
 number of cartesian basis is              1387
 number of contracted shell pairs         75804
 number of primitive shell pairs         283884
 maxK2 (contraction) of shell pair           49
 max number of K2 of shell pair               1
 max number of CS2 of shell pair          11341
 max number of PS2 of shell pair          51345
 mem total for path MDJ                 1788282
 -------------------------------------------------------
 Smallest overlap matrix eigenvalue = 2.00E-05

 Scale SEOQF with 1.000000e-04/1.000000e-04/1.000000e-04

 Standard Electronic Orientation quadrupole field applied
 Nucleus-field energy     =    -0.0000000205 hartrees
 Guess from superposition of atomic densities
 Warning:  Energy on first SCF cycle will be non-variational
 A restricted hybrid HF-DFT SCF calculation will be
 performed using Pulay DIIS extrapolation
 Exchange:     1.0000 Hartree-Fock + 1.0000 SRLSDA
 Correlation:  1.0000 LYP
 Using SG-1 standard quadrature grid
 SCF converges when DIIS error is below 1.0E-08
 using 96 threads for integral computing 
 using 96 threads for integral computing 
 K construction time:  CPU 102.43 s  wall 2.04 s
 -------------------------------------------------------
 OpenMP BLAS3 based DFT computing Module                
 Release: version 1.0, May 2013, Q-Chem Inc. Pittsburgh 
 -------------------------------------------------------
 ---------------------------------------
  Cycle       Energy         DIIS Error
 ---------------------------------------
    1   -5454.5696753761      3.05E-02
 K construction time:  CPU 721.56 s  wall 26.01 s
    2   -5398.7321984260      1.93E-03
 K construction time:  CPU 677.49 s  wall 24.35 s
    3   -5398.5157877687      2.41E-03
 K construction time:  CPU 654.26 s  wall 23.19 s
    4   -5399.7288611739      7.66E-04
 K construction time:  CPU 597.18 s  wall 20.94 s
    5   -5399.8509966306      1.75E-04
 K construction time:  CPU 558.69 s  wall 19.80 s
    6   -5399.8566850059      7.60E-05
 K construction time:  CPU 523.78 s  wall 18.93 s
    7   -5399.8580176913      2.64E-05
 K construction time:  CPU 485.95 s  wall 17.37 s
    8   -5399.8581992454      1.06E-05
 K construction time:  CPU 445.75 s  wall 16.16 s
    9   -5399.8582374867      4.30E-06
 K construction time:  CPU 414.46 s  wall 14.97 s
   10   -5399.8582468324      2.00E-06
 K construction time:  CPU 409.57 s  wall 14.79 s
   11   -5399.8582508229      1.24E-06
 K construction time:  CPU 372.56 s  wall 13.08 s
   12   -5399.8582518519      4.71E-07
 K construction time:  CPU 333.98 s  wall 11.95 s
   13   -5399.8582522011      3.10E-07
 K construction time:  CPU 308.38 s  wall 10.98 s
   14   -5399.8582523628      1.62E-07
 K construction time:  CPU 291.34 s  wall 10.90 s
   15   -5399.8582523781      1.11E-07
 K construction time:  CPU 709.54 s  wall 25.80 s
   16   -5399.8582525586      5.11E-08
 K construction time:  CPU 270.84 s  wall 9.17 s
   17   -5399.8582525141      3.04E-08
 K construction time:  CPU 265.84 s  wall 9.17 s
   18   -5399.8582525323      1.46E-08
 K construction time:  CPU 237.62 s  wall 8.19 s
   19   -5399.8582526518      7.75E-09 Convergence criterion met
 ---------------------------------------
 SCF time:  CPU 19506.90 s  wall 744.33 s
 SCF   energy in the final basis set = -5399.8582526518
 Total energy in the final basis set = -5399.8582526518
 Direct TDDFT/TDA calculation will be performed
 Exchange:     1.0000 Hartree-Fock + 1.0000 SRLSDA
 Correlation:  1.0000 LYP
 Using SG-1 standard quadrature grid
 Singlet excitation energies requested
 CIS energy converged when residual is below 10e- 6
 ---------------------------------------------------
 Iter    Rts Conv    Rts Left    Ttl Dev     Max Dev
 ---------------------------------------------------
   1         0          25      0.000773    0.000162
   2         2          23      0.000429    0.000061
   3         3          22      0.000459    0.000114
   4         3          22      0.000638    0.000096
   5         3          22      0.000644    0.000094
   6         3          22      0.000446    0.000077
   7         5          20      0.000398    0.000056
   8         8          17      0.000245    0.000033
   9         9          16      0.000220    0.000039
  10         9          16      0.000166    0.000039
  11        12          13      0.000094    0.000020
  12        16           9      0.000051    0.000011
  13        18           7      0.000029    0.000006
  14        20           5      0.000019    0.000003
  15        21           4      0.000012    0.000002
  16        25           0      0.000008    0.000001    Roots Converged
 ---------------------------------------------------
 
 
 ---------------------------------------------------
         TDDFT/TDA Excitation Energies              
 ---------------------------------------------------

 Excited state   1: excitation energy (eV) =    1.7185
    Total energy for state   1:  -5399.795097495003
    Multiplicity: Singlet 
    Trans. Mom.: -0.2388 X  -1.0749 Y   0.1318 Z
    Strength   :     0.0517821083
    D(450) --> V(  3) amplitude = -0.7515
    D(450) --> V(  4) amplitude = -0.4341

 Excited state   2: excitation energy (eV) =    1.7274
    Total energy for state   2:  -5399.794773685428
    Multiplicity: Singlet 
    Trans. Mom.: -1.2227 X  -3.0734 Y   0.3521 Z
    Strength   :     0.4682593115
    D(450) --> V(  3) amplitude =  0.2299
    D(452) --> V(  7) amplitude =  0.2212
    D(455) --> V(  1) amplitude =  0.6815
    D(455) --> V(  3) amplitude = -0.4504
    D(455) --> V(  4) amplitude = -0.2652

 Excited state   3: excitation energy (eV) =    1.7837
    Total energy for state   3:  -5399.792701531109
    Multiplicity: Singlet 
    Trans. Mom.:  0.0981 X  -0.0902 Y  -0.0558 Z
    Strength   :     0.0009119753
    D(449) --> V(  1) amplitude =  0.9341
    D(449) --> V(  2) amplitude =  0.2186

 Excited state   4: excitation energy (eV) =    1.8157
    Total energy for state   4:  -5399.791525495378
    Multiplicity: Singlet 
    Trans. Mom.:  0.0049 X   0.2897 Y   0.0968 Z
    Strength   :     0.0041507219
    D(449) --> V(  1) amplitude =  0.2236
    D(449) --> V(  2) amplitude = -0.9334

 Excited state   5: excitation energy (eV) =    1.8212
    Total energy for state   5:  -5399.791324004989
    Multiplicity: Singlet 
    Trans. Mom.: -0.3404 X  -0.1534 Y  -0.1838 Z
    Strength   :     0.0077279759
    D(452) --> V(  3) amplitude =  0.5153
    D(452) --> V(  4) amplitude =  0.2978
    D(455) --> V(  1) amplitude = -0.5047
    D(455) --> V(  7) amplitude =  0.5156

 Excited state   6: excitation energy (eV) =    1.8794
    Total energy for state   6:  -5399.789186351097
    Multiplicity: Singlet 
    Trans. Mom.:  1.4628 X   2.4041 Y  -0.2043 Z
    Strength   :     0.3665672885
    D(452) --> V(  3) amplitude =  0.3246
    D(452) --> V(  7) amplitude = -0.2127
    D(455) --> V(  1) amplitude =  0.4150
    D(455) --> V(  2) amplitude =  0.3486
    D(455) --> V(  3) amplitude =  0.5506
    D(455) --> V(  4) amplitude =  0.2650
    D(455) --> V(  7) amplitude =  0.2998

 Excited state   7: excitation energy (eV) =    1.9261
    Total energy for state   7:  -5399.787469128019
    Multiplicity: Singlet 
    Trans. Mom.: -0.6099 X  -0.8485 Y   0.0425 Z
    Strength   :     0.0516103333
    D(455) --> V(  2) amplitude =  0.9116
    D(455) --> V(  3) amplitude = -0.2265

 Excited state   8: excitation energy (eV) =    1.9418
    Total energy for state   8:  -5399.786893085045
    Multiplicity: Singlet 
    Trans. Mom.:  0.0236 X  -0.1733 Y  -0.0655 Z
    Strength   :     0.0016586831
    D(447) --> V(  1) amplitude = -0.9234

 Excited state   9: excitation energy (eV) =    2.0153
    Total energy for state   9:  -5399.784192008123
    Multiplicity: Singlet 
    Trans. Mom.: -0.0705 X  -0.0456 Y  -0.0165 Z
    Strength   :     0.0003616093
    D(445) --> V(  2) amplitude =  0.4332
    D(447) --> V(  2) amplitude =  0.8476

 Excited state  10: excitation energy (eV) =    2.1247
    Total energy for state  10:  -5399.780172691900
    Multiplicity: Singlet 
    Trans. Mom.:  0.0077 X  -0.0340 Y   0.0559 Z
    Strength   :     0.0002259947
    D(442) --> V(  1) amplitude = -0.3849
    D(442) --> V(  2) amplitude = -0.3486
    D(445) --> V(  1) amplitude = -0.4596
    D(445) --> V(  2) amplitude = -0.5557
    D(447) --> V(  2) amplitude =  0.2381

 Excited state  11: excitation energy (eV) =    2.1482
    Total energy for state  11:  -5399.779307514013
    Multiplicity: Singlet 
    Trans. Mom.: -0.2881 X  -0.7634 Y   0.1910 Z
    Strength   :     0.0369607506
    D(448) --> V(  3) amplitude =  0.7705
    D(448) --> V(  4) amplitude =  0.4439

 Excited state  12: excitation energy (eV) =    2.2004
    Total energy for state  12:  -5399.777388995683
    Multiplicity: Singlet 
    Trans. Mom.: -0.0283 X   0.0905 Y   0.0443 Z
    Strength   :     0.0005901582
    D(441) --> V(  2) amplitude = -0.2200
    D(442) --> V(  1) amplitude =  0.2822
    D(442) --> V(  2) amplitude = -0.2272
    D(445) --> V(  1) amplitude =  0.5472
    D(445) --> V(  2) amplitude = -0.5583
    D(449) --> V(  4) amplitude = -0.2491

 Excited state  13: excitation energy (eV) =    2.2628
    Total energy for state  13:  -5399.775095764478
    Multiplicity: Singlet 
    Trans. Mom.:  0.0468 X  -0.0212 Y  -0.0030 Z
    Strength   :     0.0001471434
    D(442) --> V(  1) amplitude = -0.6410
    D(443) --> V(  1) amplitude =  0.2368
    D(445) --> V(  1) amplitude =  0.5731

 Excited state  14: excitation energy (eV) =    2.2957
    Total energy for state  14:  -5399.773888136694
    Multiplicity: Singlet 
    Trans. Mom.:  0.0196 X  -0.0504 Y  -0.0409 Z
    Strength   :     0.0002587577
    D(442) --> V(  2) amplitude = -0.7368
    D(443) --> V(  2) amplitude =  0.2673
    D(445) --> V(  2) amplitude =  0.3055
    D(447) --> V(  2) amplitude = -0.2962

 Excited state  15: excitation energy (eV) =    2.3745
    Total energy for state  15:  -5399.770993205222
    Multiplicity: Singlet 
    Trans. Mom.:  0.0305 X   0.0143 Y   0.0136 Z
    Strength   :     0.0000767868
    D(441) --> V(  1) amplitude =  0.5903
    D(442) --> V(  1) amplitude = -0.2334
    D(447) --> V(  4) amplitude = -0.3088
    D(449) --> V(  3) amplitude =  0.2674
    D(449) --> V(  4) amplitude = -0.4538

 Excited state  16: excitation energy (eV) =    2.3881
    Total energy for state  16:  -5399.770492997337
    Multiplicity: Singlet 
    Trans. Mom.:  0.0592 X  -0.0271 Y  -0.0033 Z
    Strength   :     0.0002484820
    D(455) --> V(  3) amplitude = -0.4820
    D(455) --> V(  4) amplitude =  0.8474

 Excited state  17: excitation energy (eV) =    2.4461
    Total energy for state  17:  -5399.768360830636
    Multiplicity: Singlet 
    Trans. Mom.:  0.1433 X  -0.0660 Y   0.0695 Z
    Strength   :     0.0017815951
    D(441) --> V(  1) amplitude = -0.5599
    D(442) --> V(  1) amplitude = -0.2878
    D(449) --> V(  3) amplitude =  0.3383
    D(449) --> V(  4) amplitude = -0.5480

 Excited state  18: excitation energy (eV) =    2.5274
    Total energy for state  18:  -5399.765371409928
    Multiplicity: Singlet 
    Trans. Mom.: -0.1156 X  -0.1249 Y   0.0763 Z
    Strength   :     0.0021535998
    D(441) --> V(  1) amplitude =  0.2352
    D(445) --> V(  3) amplitude =  0.3574
    D(445) --> V(  4) amplitude = -0.6156
    D(447) --> V(  3) amplitude = -0.2722
    D(447) --> V(  4) amplitude =  0.4709

 Excited state  19: excitation energy (eV) =    2.5911
    Total energy for state  19:  -5399.763032023886
    Multiplicity: Singlet 
    Trans. Mom.: -0.0194 X   0.0625 Y  -0.0139 Z
    Strength   :     0.0002843379
    D(442) --> V(  3) amplitude =  0.4225
    D(442) --> V(  4) amplitude = -0.7202
    D(443) --> V(  4) amplitude =  0.2524
    D(447) --> V(  4) amplitude =  0.2193

 Excited state  20: excitation energy (eV) =    2.6477
    Total energy for state  20:  -5399.760950621528
    Multiplicity: Singlet 
    Trans. Mom.: -0.0910 X  -0.1022 Y  -0.0173 Z
    Strength   :     0.0012340260
    D(441) --> V(  1) amplitude =  0.2769
    D(442) --> V(  2) amplitude =  0.2152
    D(442) --> V(  4) amplitude =  0.2455
    D(445) --> V(  3) amplitude = -0.2920
    D(445) --> V(  4) amplitude =  0.4945
    D(447) --> V(  3) amplitude = -0.3126
    D(447) --> V(  4) amplitude =  0.5245

 Excited state  21: excitation energy (eV) =    2.6484
    Total energy for state  21:  -5399.760925359641
    Multiplicity: Singlet 
    Trans. Mom.: -0.0462 X   0.0047 Y  -0.0002 Z
    Strength   :     0.0001401943
    D(454) --> V(  1) amplitude =  0.9828

 Excited state  22: excitation energy (eV) =    2.6784
    Total energy for state  22:  -5399.759824648129
    Multiplicity: Singlet 
    Trans. Mom.: -0.1064 X   0.1625 Y  -0.0881 Z
    Strength   :     0.0029855447
    D(441) --> V(  1) amplitude = -0.2478
    D(441) --> V(  2) amplitude = -0.8567

 Excited state  23: excitation energy (eV) =    2.7164
    Total energy for state  23:  -5399.758425620786
    Multiplicity: Singlet 
    Trans. Mom.:  0.0255 X   0.0040 Y  -0.0020 Z
    Strength   :     0.0000445694
    D(454) --> V(  2) amplitude =  0.9862

 Excited state  24: excitation energy (eV) =    2.7749
    Total energy for state  24:  -5399.756278426272
    Multiplicity: Singlet 
    Trans. Mom.: -0.0076 X   0.5721 Y   1.2895 Z
    Strength   :     0.1352901605
    D(448) --> V(  7) amplitude =  0.2250
    D(450) --> V(  7) amplitude =  0.7112
    D(452) --> V(  1) amplitude =  0.2123
    D(452) --> V(  3) amplitude = -0.2420
    D(455) --> V(  7) amplitude =  0.3703

 Excited state  25: excitation energy (eV) =    2.8085
    Total energy for state  25:  -5399.755040494149
    Multiplicity: Singlet 
    Trans. Mom.:  6.5867 X   2.1396 Y  -1.3331 Z
    Strength   :     3.4225067258
    D(454) --> V(  8) amplitude = -0.7194
    D(455) --> V( 11) amplitude =  0.4755
 
 ---------------------------------------------------
  Timing summary (seconds)
  CPU time     149037.37s
  System time       0.30s
  Wall time     10423.09s

                    FCD ELECTRONIC-COUPLING CALCULATION


       Fragment Charges of Ground State with Nuclear Charges
 -----------------------------------------------------
   State         Q(D)        Q(A)          dQ
 -----------------------------------------------------
       0     0.176998   -0.176998    0.353996
 -----------------------------------------------------

 Within CIS/TDA Excited States:

       Fragment Charges of Singlet Excited State with Nuclear Charges
 -----------------------------------------------------
   State         Q(D)        Q(A)          dQ
 -----------------------------------------------------
       1     0.211749   -0.211749    0.423498 (  0.069502)
       2     0.569570   -0.569570    1.139140 (  0.785144)
       3     0.179225   -0.179225    0.358450 (  0.004454)
       4     0.179273   -0.179273    0.358546 (  0.004550)
       5     0.468000   -0.468000    0.936000 (  0.582003)
       6     0.527156   -0.527156    1.054313 (  0.700317)
       7     1.074581   -1.074581    2.149162 (  1.795166)
       8     0.173124   -0.173124    0.346247 ( -0.007749)
       9     0.177847   -0.177847    0.355694 (  0.001697)
      10     0.178829   -0.178829    0.357658 (  0.003662)
      11     0.180681   -0.180681    0.361361 (  0.007365)
      12     0.177031   -0.177031    0.354062 (  0.000066)
      13     0.176428   -0.176428    0.352856 ( -0.001140)
      14     0.179269   -0.179269    0.358538 (  0.004541)
      15     0.217577   -0.217577    0.435154 (  0.081158)
      16     1.161585   -1.161585    2.323169 (  1.969173)
      17     0.205132   -0.205132    0.410263 (  0.056267)
      18     0.184466   -0.184466    0.368933 (  0.014937)
      19     0.182859   -0.182859    0.365717 (  0.011721)
      20     0.192647   -0.192647    0.385295 (  0.031298)
      21     1.135711   -1.135711    2.271422 (  1.917425)
      22     0.239262   -0.239262    0.478523 (  0.124527)
      23     1.165848   -1.165848    2.331695 (  1.977699)
      24     0.210872   -0.210872    0.421744 (  0.067748)
      25     0.193408   -0.193408    0.386815 (  0.032819)
 -----------------------------------------------------

               Fragment Charges of Transition Densities and
            FCD Couplings Between Ground and Singlet Excited States
 --------------------------------------------------------------------------------
    States     Q12(D)     Q12(A)       dQ12    Coupling(eV)   FCD-dQ1    FCD-dQ2
 --------------------------------------------------------------------------------
    0    1   0.015947  -0.015947   0.031894     -0.5810107   0.341579   0.435916
    0    2   0.045078  -0.045078   0.090156     -0.1933151   0.343777   1.149360
    0    3  -0.001611   0.001611  -0.003221      0.7336158   0.352307   0.360139
    0    4  -0.000183   0.000183  -0.000367      0.1444048   0.353967   0.358575
    0    5  -0.013769   0.013769  -0.027538     0.08578919   0.352696   0.937300
    0    6  -0.009241   0.009241  -0.018481     0.04952827   0.353509   1.054800
    0    7   0.000253  -0.000253   0.000506  -0.0005427037   0.353996   2.149162
    0    8  -0.000874   0.000874  -0.001749     -0.3993687   0.354373   0.345871
    0    9  -0.002284   0.002284  -0.004568      0.9906999   0.350199   0.359491
    0   10   0.004097  -0.004097   0.008193      -1.036764   0.347432   0.364222
    0   11   0.008511  -0.008511   0.017023       -1.04982   0.340262   0.375096
    0   12  -0.003011   0.003011  -0.006021        1.10019   0.348008   0.360051
    0   13   0.002248  -0.002248   0.004496       1.122417   0.357959   0.348894
    0   14  -0.000155   0.000155  -0.000310      0.1550648   0.353975   0.358559
    0   15   0.003989  -0.003989   0.007979     -0.2290492   0.353219   0.435931
    0   16  -0.000238   0.000238  -0.000476   0.0005774168   0.353996   2.323169
    0   17   0.008614  -0.008614   0.017228     -0.6387134   0.349140   0.415119
    0   18   0.002330  -0.002330   0.004660     -0.6689753   0.352662   0.370268
    0   19  -0.002065   0.002065  -0.004131       0.746419   0.352687   0.367027
    0   20   0.000267  -0.000267   0.000534    -0.04518619   0.353987   0.385304
    0   21  -0.000552   0.000552  -0.001105    0.001525703   0.353996   2.271422
    0   22  -0.016735   0.016735  -0.033469      0.6340687   0.345571   0.486949
    0   23   0.000080  -0.000080   0.000160  -0.0002191222   0.353996   2.331695
    0   24  -0.009522   0.009522  -0.019043      0.6799098   0.349010   0.426730
    0   25   0.010666  -0.010666   0.021331      -1.113039   0.343493   0.397318
 --------------------------------------------------------------------------------

               Fragment Charges of Transition Densities and
            FCD Couplings Between Singlet Excited States
 --------------------------------------------------------------------------------
    States     Q12(D)     Q12(A)       dQ12    Coupling(eV)   FCD-dQ1    FCD-dQ2
 --------------------------------------------------------------------------------
    1    2   0.111861  -0.111861   0.223723   -0.002335626   0.359315   1.203324
    1    3  -0.005957   0.005957  -0.011914    -0.01121309   0.425612   0.356337
    1    4  -0.000592   0.000592  -0.001184   -0.001770676   0.423520   0.358525
    1    5  -0.094629   0.094629  -0.189258     0.03050157   0.361185   0.998313
    1    6   0.082933  -0.082933   0.165866    -0.03743346   0.382544   1.095267
    1    7  -0.042177   0.042177  -0.084355     0.01009882   0.419385   2.153276
    1    8  -0.002628   0.002628  -0.005256    -0.01505154   0.423854   0.345891
    1    9   0.000180  -0.000180   0.000360     0.00157335   0.423500   0.355692
    1   10  -0.002223   0.002223  -0.004446    -0.02717984   0.423797   0.357359
    1   11  -0.004027   0.004027  -0.008053    -0.05390471   0.424525   0.360335
    1   12   0.002279  -0.002279   0.004558     0.03136237   0.423796   0.353764
    1   13  -0.003847   0.003847  -0.007695    -0.05792498   0.424327   0.352028
    1   14   0.000739  -0.000739   0.001478     0.01311733   0.423532   0.358504
    1   15   0.000571  -0.000571   0.001142    -0.06304541   0.423388   0.435265
    1   16   0.001506  -0.001506   0.003013   -0.001061754   0.423494   2.323174
    1   17  -0.003209   0.003209  -0.006417     -0.2532381   0.426099   0.407663
    1   18   0.000291  -0.000291   0.000582    0.008631822   0.423505   0.368927
    1   19  -0.000155   0.000155  -0.000311    -0.00469216   0.423500   0.365715
    1   20   0.000736  -0.000736   0.001471     0.03567696   0.423555   0.385238
    1   21  -0.000285   0.000285  -0.000569   0.0002863369   0.423498   2.271422
    1   22  -0.001830   0.001830  -0.003660     0.06327754   0.423256   0.478766
    1   23   0.000054  -0.000054   0.000109  -5.697448E-05   0.423498   2.331695
    1   24  -0.000282   0.000282  -0.000564     -0.2858434   0.423664   0.421579
    1   25  -0.003655   0.003655  -0.007309     -0.2017614   0.424901   0.385412
    2    3  -0.020761   0.020761  -0.041522   -0.002982149   1.141343   0.356248
    2    4  -0.002173   0.002173  -0.004346   -0.000492104   1.139165   0.358522
    2    5  -0.330813   0.330813  -0.661626    -0.04639181   1.706947   0.368193
    2    6   0.290172  -0.290172   0.580344     0.07581734   1.678619   0.514834
    2    7  -0.146427   0.146427  -0.292854      0.0498559   1.060371   2.227932
    2    8  -0.009098   0.009098  -0.018195   -0.004915889   1.139558   0.345830
    2    9   0.000674  -0.000674   0.001347   0.0004951133   1.139143   0.355691
    2   10  -0.008181   0.008181  -0.016363   -0.008311714   1.139483   0.357316
    2   11  -0.014121   0.014121  -0.028243    -0.01524204   1.140165   0.360337
    2   12   0.008392  -0.008392   0.016785     0.01010483   1.139499   0.353703
    2   13  -0.013388   0.013388  -0.026777    -0.01819293   1.140051   0.351945
    2   14   0.002505  -0.002505   0.005011    0.003647822   1.139173   0.358505
    2   15   0.001650  -0.001650   0.003300    0.003033152   1.139156   0.435139
    2   16   0.004919  -0.004919   0.009837   -0.005488601   1.139059   2.323251
    2   17  -0.011044   0.011044  -0.022087    -0.02173977   1.139809   0.409595
    2   18   0.001113  -0.001113   0.002227    0.002312827   1.139147   0.368927
    2   19  -0.000398   0.000398  -0.000795  -0.0008882598   1.139141   0.365716
    2   20   0.002299  -0.002299   0.004599    0.005613947   1.139169   0.385267
    2   21  -0.000322   0.000322  -0.000645   0.0005243837   1.139140   2.271422
    2   22  -0.005399   0.005399  -0.010798    -0.01553608   1.139317   0.478347
    2   23   0.000040  -0.000040   0.000080  -6.601944E-05   1.139140   2.331695
    2   24   0.000691  -0.000691   0.001383    0.002018796   1.139143   0.421742
    2   25  -0.014732   0.014732  -0.029464    -0.04221497   1.140293   0.385663
    3    4  -0.000958   0.000958  -0.001917     0.01599579   0.356581   0.360415
    3    5   0.017776  -0.017776   0.035553   -0.002290183   0.356270   0.938180
    3    6  -0.015683   0.015683  -0.031366    0.004294158   0.357039   1.055724
    3    7   0.007307  -0.007307   0.014613    -0.00116176   0.358331   2.149282
    3    8   0.002664  -0.002664   0.005328     0.05197798   0.360449   0.344249
    3    9   0.000778  -0.000778   0.001556      0.0866719   0.359151   0.354993
    3   10  -0.001542   0.001542  -0.003085     -0.1690745   0.361164   0.354944
    3   11   0.000857  -0.000857   0.001714     -0.1388953   0.357658   0.362154
    3   12   0.000461  -0.000461   0.000922     0.08074385   0.358636   0.353876
    3   13   0.000670  -0.000670   0.001339      0.1034461   0.358754   0.352552
    3   14  -0.000905   0.000905  -0.001810       0.255895   0.356684   0.360304
    3   15  -0.003411   0.003411  -0.006822     0.05172549   0.357848   0.435756
    3   16   0.000514  -0.000514   0.001028  -0.0003161273   0.358450   2.323170
    3   17   0.003920  -0.003920   0.007839    -0.09591811   0.357290   0.411423
    3   18  -0.002076   0.002076  -0.004151      0.2308624   0.357006   0.370378
    3   19  -0.000545   0.000545  -0.001090      0.1159576   0.358291   0.365877
    3   20  -0.002214   0.002214  -0.004428      0.1353285   0.357739   0.386006
    3   21   0.000128  -0.000128   0.000255  -0.0001153715   0.358450   2.271422
    3   22   0.000289  -0.000289   0.000577   -0.004302224   0.358448   0.478526
    3   23   0.000004  -0.000004   0.000007  -3.418433E-06   0.358450   2.331695
    3   24  -0.000573   0.000573  -0.001146     0.01793581   0.358430   0.421765
    3   25   0.001185  -0.001185   0.002370    -0.08444662   0.358254   0.387012
    4    5   0.002748  -0.002748   0.005496  -5.216954E-05   0.358494   0.936052
    4    6  -0.004804   0.004804  -0.009608   0.0008786392   0.358413   1.054446
    4    7  -0.006210   0.006210  -0.012420   0.0007655318   0.358460   2.149248
    4    8  -0.001242   0.001242  -0.002484    -0.02360973   0.359029   0.345764
    4    9   0.001572  -0.001572   0.003144     0.09086341   0.360572   0.353668
    4   10   0.001134  -0.001134   0.002268       0.151584   0.360413   0.355791
    4   11   0.000100  -0.000100   0.000200    -0.02337622   0.358532   0.361375
    4   12   0.001197  -0.001197   0.002394      0.1403976   0.359584   0.353024
    4   13  -0.000483   0.000483  -0.000966    -0.07187071   0.358706   0.352696
    4   14  -0.000026   0.000026  -0.000053     -0.2391866   0.358595   0.358489
    4   15   0.000274  -0.000274   0.000549   -0.004002599   0.358542   0.435158
    4   16   0.000303  -0.000303   0.000607  -0.0001767492   0.358546   2.323169
    4   17   0.001114  -0.001114   0.002227    -0.02704644   0.358450   0.410359
    4   18  -0.000842   0.000842  -0.001685      0.1098062   0.358280   0.369199
    4   19  -0.000280   0.000280  -0.000560     0.05977811   0.358503   0.365761
    4   20   0.000101  -0.000101   0.000203   -0.006312766   0.358545   0.385296
    4   21  -0.000016   0.000016  -0.000032   1.395771E-05   0.358546   2.271422
    4   22  -0.002156   0.002156  -0.004311     0.03091931   0.358391   0.478678
    4   23   0.000020  -0.000020   0.000041  -1.850491E-05   0.358546   2.331695
    4   24  -0.000578   0.000578  -0.001157     0.01754656   0.358525   0.421766
    4   25   0.000391  -0.000391   0.000781     -0.0273959   0.358525   0.386837
    5    6  -0.280183   0.280183  -0.560365     0.02892354   0.431677   1.558636
    5    7   0.040515  -0.040515   0.081030   -0.006944589   0.930611   2.154551
    5    8   0.004135  -0.004135   0.008269    0.001689967   0.936116   0.346131
    5    9   0.004395  -0.004395   0.008789    0.002938008   0.936133   0.355560
    5   10   0.010287  -0.010287   0.020574     0.01076769   0.936731   0.356927
    5   11   0.011450  -0.011450   0.022899       0.012989   0.936911   0.360450
    5   12  -0.005488   0.005488  -0.010975   -0.007146519   0.936207   0.353855
    5   13   0.010886  -0.010886   0.021773     0.01644172   0.936811   0.352044
    5   14   0.001329  -0.001329   0.002658    0.002183846   0.936012   0.358525
    5   15  -0.001932   0.001932  -0.003864   -0.004267555   0.936029   0.435125
    5   16   0.001697  -0.001697   0.003393   -0.001386507   0.935991   2.323177
    5   17   0.008693  -0.008693   0.017387     0.02061964   0.936574   0.409689
    5   18  -0.000960   0.000960  -0.001919   -0.002390318   0.936006   0.368926
    5   19  -0.000790   0.000790  -0.001580   -0.002133255   0.936004   0.365713
    5   20  -0.002753   0.002753  -0.005507   -0.008262727   0.936055   0.385240
    5   21   0.000062  -0.000062   0.000124   -7.66102E-05   0.936000   2.271422
    5   22   0.002763  -0.002763   0.005525     0.01034912   0.936066   0.478457
    5   23   0.000030  -0.000030   0.000061  -3.904374E-05   0.936000   2.331695
    5   24  -0.009034   0.009034  -0.018068    -0.03342385   0.936634   0.421110
    5   25   0.018851  -0.018851   0.037703     0.06715194   0.938576   0.384239
    6    7   0.220913  -0.220913   0.441825    -0.01467393   0.898258   2.305217
    6    8   0.007227  -0.007227   0.014455    0.001272842   1.054608   0.345952
    6    9  -0.019675   0.019675  -0.039351   -0.007606863   1.056523   0.353484
    6   10  -0.018617   0.018617  -0.037234    -0.01303473   1.056297   0.355674
    6   11  -0.009048   0.009048  -0.018096    -0.00701059   1.054785   0.360889
    6   12  -0.001001   0.001001  -0.002001  -0.0009173919   1.054319   0.354056
    6   13  -0.008514   0.008514  -0.017028    -0.00929655   1.054726   0.352443
    6   14  -0.011988   0.011988  -0.023977    -0.01431138   1.055138   0.357712
    6   15   0.002231  -0.002231   0.004462    0.003567376   1.054345   0.435122
    6   16  -0.008985   0.008985  -0.017970    0.007201061   1.054059   2.323424
    6   17  -0.005669   0.005669  -0.011339   -0.009970497   1.054513   0.410064
    6   18   0.000341  -0.000341   0.000683   0.0006457605   1.054314   0.368932
    6   19   0.002361  -0.002361   0.004722    0.004880414   1.054345   0.365685
    6   20   0.004669  -0.004669   0.009337     0.01071942   1.054443   0.385164
    6   21   0.000135  -0.000135   0.000270  -0.0001703729   1.054313   2.271422
    6   22  -0.002514   0.002514  -0.005028   -0.006975855   1.054357   0.478479
    6   23  -0.000084   0.000084  -0.000167   0.0001096147   1.054313   2.331695
    6   24  -0.000947   0.000947  -0.001894   -0.002680943   1.054319   0.421739
    6   25  -0.011522   0.011522  -0.023045     -0.0320022   1.055108   0.386020
    7    8   0.038748  -0.038748   0.077496    0.000671289   2.152487   0.342922
    7    9  -0.052842   0.052842  -0.105685   -0.005218748   2.155369   0.349487
    7   10  -0.025923   0.025923  -0.051847    -0.00573639   2.150662   0.356159
    7   11   0.010163  -0.010163   0.020325     0.00252425   2.149393   0.361130
    7   12  -0.023794   0.023794  -0.047588   -0.007261277   2.150423   0.352802
    7   13   0.007731  -0.007731   0.015461    0.002897631   2.149295   0.352723
    7   14  -0.036918   0.036918  -0.073837    -0.01518719   2.152202   0.355498
    7   15   0.001655  -0.001655   0.003310   0.0008657368   2.149169   0.435148
    7   16   0.005552  -0.005552   0.011104    -0.02924042   2.148457   2.323875
    7   17   0.008527  -0.008527   0.017055    0.005098766   2.149330   0.410096
    7   18  -0.002152   0.002152  -0.004304   -0.001453873   2.149173   0.368923
    7   19   0.002420  -0.002420   0.004839    0.001804285   2.149175   0.365704
    7   20   0.007885  -0.007885   0.015771     0.00645091   2.149303   0.385154
    7   21  -0.000668   0.000668  -0.001336    0.007892217   2.149148   2.271436
    7   22  -0.008913   0.008913  -0.017825   -0.008024413   2.149353   0.478333
    7   23   0.000038  -0.000038   0.000076  -0.0003284925   2.149162   2.331695
    7   24  -0.000329   0.000329  -0.000657  -0.0003230087   2.149163   0.421744
    7   25   0.014371  -0.014371   0.028741     0.01438352   2.149631   0.386346
    8    9  -0.002013   0.002013  -0.004025     0.02383771   0.344765   0.357176
    8   10  -0.000801   0.000801  -0.001601     0.02470658   0.346027   0.357878
    8   11   0.000424  -0.000424   0.000848    -0.01150791   0.346200   0.361409
    8   12  -0.000907   0.000907  -0.001813     0.05443246   0.345847   0.354462
    8   13   0.000245  -0.000245   0.000490     -0.0235389   0.346211   0.352892
    8   14  -0.000668   0.000668  -0.001335     0.03756686   0.346104   0.358681
    8   15   0.004193  -0.004193   0.008385    -0.04009944   0.345463   0.435938
    8   16   0.000200  -0.000200   0.000401  -9.046621E-05   0.346247   2.323169
    8   17  -0.002690   0.002690  -0.005380     0.04179495   0.345798   0.410712
    8   18   0.002657  -0.002657   0.005313     -0.1242066   0.345065   0.370116
    8   19   0.000794  -0.000794   0.001587    -0.05224841   0.346119   0.365846
    8   20   0.003196  -0.003196   0.006392     -0.1098264   0.345228   0.386314
    8   21  -0.000190   0.000190  -0.000381   0.0001397385   0.346247   2.271422
    8   22   0.000327  -0.000327   0.000654   -0.003639666   0.346244   0.478527
    8   23  -0.000005   0.000005  -0.000010    3.89262E-06   0.346247   2.331695
    8   24   0.000192  -0.000192   0.000384   -0.004242155   0.346245   0.421746
    8   25   0.000562  -0.000562   0.001125    -0.02398949   0.346216   0.386846
    9   10   0.000217  -0.000217   0.000433    -0.02206539   0.355602   0.357749
    9   11  -0.000416   0.000416  -0.000833     0.01873946   0.355574   0.361481
    9   12   0.002310  -0.002310   0.004620     0.09114986   0.359569   0.350187
    9   13  -0.000912   0.000912  -0.001824    -0.09768989   0.356586   0.351964
    9   14   0.004038  -0.004038   0.008076     -0.1380672   0.348915   0.365316
    9   15  -0.000117   0.000117  -0.000234    0.001056979   0.355693   0.435155
    9   16  -0.003375   0.003375  -0.006751    0.001279027   0.355670   2.323192
    9   17   0.000493  -0.000493   0.000985   -0.007773771   0.355676   0.410281
    9   18   0.000741  -0.000741   0.001483    -0.05597142   0.355529   0.369097
    9   19   0.001232  -0.001232   0.002463     -0.1269808   0.355121   0.366290
    9   20  -0.000103   0.000103  -0.000206    0.004409307   0.355692   0.385296
    9   21  -0.000015   0.000015  -0.000030   9.830841E-06   0.355694   2.271422
    9   22   0.007801  -0.007801   0.015601    -0.08162753   0.353743   0.480474
    9   23  -0.000037   0.000037  -0.000074   2.617812E-05   0.355694   2.331695
    9   24   0.000062  -0.000062   0.000124   -0.001422437   0.355693   0.421745
    9   25  -0.000559   0.000559  -0.001119     0.02844238   0.355653   0.386855
   10   11   0.000553  -0.000553   0.001106   -0.006036702   0.357353   0.361667
   10   12  -0.002483   0.002483  -0.004966    -0.03561188   0.361141   0.350579
   10   13  -0.000002   0.000002  -0.000004  -0.0001193111   0.357658   0.352856
   10   14   0.002161  -0.002161   0.004322     -0.0850665   0.353753   0.362442
   10   15   0.008337  -0.008337   0.016673    -0.04936515   0.354223   0.438589
   10   16   0.007133  -0.007133   0.014265   -0.001911479   0.357554   2.323273
   10   17  -0.010882   0.010882  -0.021764      0.1024513   0.349821   0.418100
   10   18   0.004412  -0.004412   0.008824     -0.1697035   0.352824   0.373767
   10   19   0.000265  -0.000265   0.000530    -0.03043098   0.357623   0.365752
   10   20   0.005201  -0.005201   0.010402     -0.1572838   0.354181   0.388772
   10   21  -0.000531   0.000531  -0.001061   0.0002904116   0.357657   2.271422
   10   22  -0.011402   0.011402  -0.022804     0.09774181   0.353499   0.482683
   10   23  -0.000223   0.000223  -0.000447   0.0001339244   0.357658   2.331695
   10   24  -0.000265   0.000265  -0.000529    0.005370013   0.357654   0.421749
   10   25   0.000268  -0.000268   0.000535    -0.01254489   0.357648   0.386825
   11   12  -0.000633   0.000633  -0.001265   -0.008550409   0.361574   0.353849
   11   13   0.000457  -0.000457   0.000914       0.012044   0.361458   0.352759
   11   14  -0.000342   0.000342  -0.000683    -0.03212791   0.361518   0.358381
   11   15  -0.000286   0.000286  -0.000572    0.001754219   0.361357   0.435159
   11   16   0.001350  -0.001350   0.002700  -0.0003301002   0.361358   2.323173
   11   17   0.000633  -0.000633   0.001267   -0.007705144   0.361329   0.410296
   11   18  -0.000324   0.000324  -0.000647     0.03194784   0.361306   0.368988
   11   19  -0.000298   0.000298  -0.000596     0.05849282   0.361281   0.365797
   11   20  -0.000041   0.000041  -0.000081    0.001694832   0.361361   0.385295
   11   21  -0.000184   0.000184  -0.000367   9.623115E-05   0.361361   2.271422
   11   22  -0.000837   0.000837  -0.001674    0.007570974   0.361337   0.478547
   11   23   0.000039  -0.000039   0.000078  -2.240492E-05   0.361361   2.331695
   11   24  -0.001875   0.001875  -0.003750     0.03862162   0.361129   0.421976
   11   25   0.002276  -0.002276   0.004551     -0.1111773   0.360572   0.387604
   12   13  -0.000836   0.000836  -0.001671    -0.02934802   0.355236   0.351683
   12   14  -0.001578   0.001578  -0.003157     0.03885928   0.352430   0.360169
   12   15  -0.004998   0.004998  -0.009995     0.02082851   0.352848   0.436368
   12   16   0.007382  -0.007382   0.014765   -0.001406895   0.353951   2.323280
   12   17   0.009389  -0.009389   0.018777    -0.06824592   0.348366   0.415960
   12   18  -0.001300   0.001300  -0.002601     0.05398656   0.353620   0.369375
   12   19  -0.000733   0.000733  -0.001467     0.04767965   0.353880   0.365899
   12   20  -0.004572   0.004572  -0.009143       0.113006   0.351582   0.387774
   12   21   0.000528  -0.000528   0.001056  -0.0002468248   0.354062   2.271422
   12   22   0.009868  -0.009868   0.019735    -0.07224057   0.351008   0.481578
   12   23  -0.000212   0.000212  -0.000425   0.0001107978   0.354062   2.331695
   12   24   0.000368  -0.000368   0.000736   -0.006245929   0.354054   0.421752
   12   25  -0.001015   0.001015  -0.002030     0.03739796   0.353937   0.386940
   13   14  -0.001323   0.001323  -0.002647     0.01120004   0.351814   0.359579
   13   15  -0.007934   0.007934  -0.015867     0.02008227   0.349903   0.438108
   13   16  -0.002565   0.002565  -0.005131    0.000326144   0.352843   2.323183
   13   17   0.003155  -0.003155   0.006310    -0.01967397   0.352171   0.410949
   13   18  -0.003501   0.003501  -0.007002     0.08689889   0.350234   0.371555
   13   19  -0.002283   0.002283  -0.004566     0.09502037   0.351400   0.367173
   13   20  -0.002647   0.002647  -0.005295     0.05972314   0.352014   0.386137
   13   21   0.000040  -0.000040   0.000081  -1.620198E-05   0.352856   2.271422
   13   22  -0.006367   0.006367  -0.012734     0.04126875   0.351579   0.479801
   13   23   0.000047  -0.000047   0.000094  -2.163701E-05   0.352856   2.331695
   13   24  -0.000018   0.000018  -0.000037   0.0002723724   0.352856   0.421744
   13   25   0.000483  -0.000483   0.000966    -0.01550579   0.352828   0.386843
   14   15   0.009266  -0.009266   0.018533    -0.01715295   0.354290   0.439402
   14   16  -0.034753   0.034753  -0.069506    0.003260349   0.356082   2.325625
   14   17  -0.006628   0.006628  -0.013256     0.03430114   0.355338   0.413462
   14   18   0.003811  -0.003811   0.007621    -0.09573182   0.354510   0.372960
   14   19   0.004600  -0.004600   0.009200     -0.1376017   0.352251   0.372003
   14   20   0.004529  -0.004529   0.009058    -0.09868709   0.355760   0.388073
   14   21  -0.000269   0.000269  -0.000538    9.92663E-05   0.358537   2.271422
   14   22  -0.000289   0.000289  -0.000578    0.001844976   0.358535   0.478526
   14   23  -0.000367   0.000367  -0.000733   0.0001564018   0.358537   2.331695
   14   24   0.000374  -0.000374   0.000748   -0.005669446   0.358529   0.421753
   14   25  -0.000434   0.000434  -0.000868     0.01571448   0.358511   0.386842
   15   16   0.027955  -0.027955   0.055910  -0.0004023671   0.433500   2.324823
   15   17  -0.030475   0.030475  -0.060951    -0.03509121   0.484917   0.360500
   15   18   0.019706  -0.019706   0.039412     0.05856417   0.453518   0.350569
   15   19   0.004810  -0.004810   0.009621      0.0289254   0.436463   0.364409
   15   20   0.020713  -0.020713   0.041426      0.1170721   0.458574   0.361875
   15   21  -0.001275   0.001275  -0.002550   0.0003804094   0.435151   2.271425
   15   22  -0.002125   0.002125  -0.004250     0.02922448   0.434742   0.478936
   15   23   0.000012  -0.000012   0.000025  -4.460125E-06   0.435154   2.331695
   15   24   0.001654  -0.001654   0.003309     0.08859964   0.435926   0.420972
   15   25  -0.001752   0.001752  -0.003504    -0.03114098   0.435407   0.386562
   16   17  -0.007614   0.007614  -0.015228  -0.0004618241   2.323290   0.410142
   16   18   0.008566  -0.008566   0.017132    0.001221549   2.323319   0.368783
   16   19  -0.069126   0.069126  -0.138251    -0.01419822   2.332885   0.356001
   16   20   0.009535  -0.009535   0.019071     0.00255487   2.323357   0.385107
   16   21  -0.000604   0.000604  -0.001207   -0.006067228   2.323197   2.271393
   16   22   0.004137  -0.004137   0.008274    0.001302128   2.323206   0.478486
   16   23  -0.000021   0.000021  -0.000041    0.001585228   2.323169   2.331695
   16   24   0.001440  -0.001440   0.002880   0.0005859059   2.323174   0.421740
   16   25  -0.010604   0.010604  -0.021208   -0.004604298   2.323401   0.386583
   17   18  -0.013642   0.013642  -0.027283    -0.03242243   0.423824   0.355372
   17   19  -0.004232   0.004232  -0.008465    -0.02575648   0.411817   0.364163
   17   20  -0.016751   0.016751  -0.033503    -0.09447485   0.433532   0.362026
   17   21   0.000273  -0.000273   0.000547  -5.945481E-05   0.410263   2.271422
   17   22   0.009086  -0.009086   0.018171    -0.05458102   0.405727   0.483059
   17   23   0.000252  -0.000252   0.000505  -7.104055E-05   0.410263   2.331695
   17   24  -0.001460   0.001460  -0.002920     0.07453844   0.409563   0.422445
   17   25   0.001589  -0.001589   0.003177      0.0474028   0.410686   0.386392
   18   19   0.001180  -0.001180   0.002361     0.02630728   0.370182   0.364469
   18   20   0.007958  -0.007958   0.015915    -0.05349454   0.359219   0.395009
   18   21  -0.000197   0.000197  -0.000393   2.499401E-05   0.368933   2.271422
   18   22  -0.000930   0.000930  -0.001861    0.002561528   0.368901   0.478555
   18   23  -0.000010   0.000010  -0.000019    1.86904E-06   0.368933   2.331695
   18   24   0.001120  -0.001120   0.002240    -0.01045883   0.368838   0.421839
   18   25  -0.001015   0.001015  -0.002030     0.03112718   0.368705   0.387043
   19   20   0.003420  -0.003420   0.006840     -0.0162212   0.363564   0.387448
   19   21  -0.000017   0.000017  -0.000033   1.004395E-06   0.365717   2.271422
   19   22   0.003066  -0.003066   0.006133   -0.004716929   0.365385   0.478856
   19   23   0.000101  -0.000101   0.000202  -1.289766E-05   0.365717   2.331695
   19   24   0.000657  -0.000657   0.001313    -0.00430301   0.365686   0.421775
   19   25   0.000193  -0.000193   0.000385   -0.003968419   0.365710   0.386822
   20   21   0.062355  -0.062355   0.124711  -4.505931E-05   0.377084   2.279632
   20   22  -0.005791   0.005791  -0.011583    0.003694282   0.383877   0.479941
   20   23   0.002048  -0.002048   0.004097  -0.0001446242   0.385286   2.331704
   20   24   0.000589  -0.000589   0.001178   -0.004101324   0.385257   0.421783
   20   25  -0.000403   0.000403  -0.000806     0.05848041   0.384947   0.387162
   21   22   0.002256  -0.002256   0.004511   7.536584E-05   2.271433   0.478512
   21   23   0.011832  -0.011832   0.023663    -0.02100392   2.263242   2.339875
   21   24  -0.003794   0.003794  -0.007588  -0.0005187422   2.271453   0.421713
   21   25   0.004055  -0.004055   0.008109   0.0006890395   2.271456   0.386780
   22   23  -0.002323   0.002323  -0.004646   9.543463E-05   0.478512   2.331707
   22   24   0.001224  -0.001224   0.002449    0.004146389   0.478629   0.421639
   22   25  -0.001544   0.001544  -0.003087    -0.00437239   0.478627   0.386711
   23   24   0.002259  -0.002259   0.004518    0.000138197   2.331706   0.421734
   23   25  -0.002172   0.002172  -0.004345  -0.0002057748   2.331705   0.386805
   24   25  -0.019938   0.019938  -0.039876    -0.01542809   0.447813   0.360747
 --------------------------------------------------------------------------------

                          END OF FCD CALCULATION

 STSman time:  CPU 944.54 s  wall 946.70 s

 
 --------------------------------------------------------------
 
                    Orbital Energies (a.u.)
 --------------------------------------------------------------
 
 Alpha MOs
 -- Occupied --
-18.644 -13.963 -13.959 -13.952 -13.949 -13.911 -13.886  -9.958
 -9.926  -9.921  -9.911  -9.910  -9.908  -9.907  -9.906  -9.903
 -9.901  -9.900  -9.899  -9.899  -9.898  -9.898  -9.897  -9.897
 -9.896  -9.896  -9.896  -9.895  -9.893  -9.893  -9.893  -9.893
 -9.893  -9.893  -9.892  -9.892  -9.892  -9.892  -9.892  -9.892
 -9.892  -9.891  -9.891  -9.891  -9.891  -9.890  -9.890  -9.890
 -9.889  -9.889  -9.889  -9.888  -9.888  -9.888  -9.888  -9.888
 -9.888  -9.888  -9.888  -9.888  -9.888  -9.888  -9.888  -9.887
 -9.887  -9.887  -9.887  -9.886  -9.886  -9.886  -9.886  -9.886
 -9.885  -9.885  -9.885  -9.884  -9.884  -9.883  -9.880  -9.879
 -9.879  -9.873  -9.872  -9.871  -9.869  -9.869  -9.866  -9.865
 -9.865  -9.865  -9.865  -9.862  -9.862  -9.862  -9.860  -9.859
 -9.859  -9.859  -9.857  -9.857  -9.856  -9.856  -9.856  -9.856
 -9.856  -9.854  -9.854  -9.854  -9.854  -9.853  -9.852  -9.851
 -9.850  -9.849  -9.848  -9.847  -9.844  -9.843  -9.843  -9.843
 -9.843  -9.843  -9.842  -9.841  -9.841  -9.837  -9.837  -9.831
 -9.829  -9.828  -9.826  -9.826  -9.824  -9.821  -9.820  -9.819
 -9.817  -9.813  -9.803  -1.046  -1.028  -1.020  -1.013  -1.008
 -1.002  -1.002  -0.983  -0.975  -0.975  -0.974  -0.972  -0.972
 -0.962  -0.953  -0.942  -0.940  -0.934  -0.928  -0.888  -0.887
 -0.886  -0.883  -0.880  -0.874  -0.866  -0.857  -0.849  -0.848
 -0.847  -0.843  -0.842  -0.841  -0.837  -0.837  -0.835  -0.830
 -0.824  -0.820  -0.817  -0.814  -0.811  -0.810  -0.804  -0.804
 -0.799  -0.797  -0.796  -0.789  -0.788  -0.784  -0.781  -0.780
 -0.772  -0.769  -0.767  -0.765  -0.763  -0.761  -0.759  -0.758
 -0.755  -0.754  -0.753  -0.750  -0.747  -0.746  -0.744  -0.737
 -0.734  -0.730  -0.723  -0.716  -0.714  -0.707  -0.702  -0.701
 -0.697  -0.692  -0.688  -0.686  -0.684  -0.681  -0.681  -0.676
 -0.675  -0.675  -0.673  -0.669  -0.668  -0.667  -0.665  -0.660
 -0.657  -0.651  -0.649  -0.641  -0.640  -0.632  -0.631  -0.629
 -0.625  -0.625  -0.622  -0.621  -0.619  -0.618  -0.614  -0.613
 -0.611  -0.605  -0.601  -0.599  -0.595  -0.593  -0.588  -0.587
 -0.585  -0.583  -0.581  -0.580  -0.579  -0.577  -0.577  -0.573
 -0.572  -0.572  -0.566  -0.562  -0.559  -0.558  -0.557  -0.555
 -0.552  -0.550  -0.548  -0.546  -0.544  -0.543  -0.542  -0.539
 -0.538  -0.536  -0.535  -0.534  -0.532  -0.528  -0.527  -0.527
 -0.520  -0.517  -0.516  -0.516  -0.514  -0.514  -0.511  -0.508
 -0.506  -0.505  -0.504  -0.504  -0.504  -0.501  -0.498  -0.497
 -0.496  -0.494  -0.493  -0.493  -0.492  -0.491  -0.489  -0.487
 -0.487  -0.486  -0.484  -0.484  -0.482  -0.482  -0.481  -0.478
 -0.477  -0.476  -0.475  -0.475  -0.474  -0.472  -0.472  -0.471
 -0.469  -0.469  -0.467  -0.466  -0.464  -0.462  -0.461  -0.460
 -0.459  -0.459  -0.458  -0.457  -0.457  -0.456  -0.454  -0.451
 -0.448  -0.448  -0.447  -0.447  -0.445  -0.444  -0.443  -0.443
 -0.442  -0.440  -0.438  -0.435  -0.434  -0.434  -0.431  -0.431
 -0.428  -0.427  -0.426  -0.424  -0.424  -0.423  -0.422  -0.419
 -0.418  -0.417  -0.416  -0.416  -0.415  -0.414  -0.414  -0.412
 -0.411  -0.410  -0.410  -0.409  -0.407  -0.407  -0.405  -0.405
 -0.404  -0.402  -0.402  -0.401  -0.400  -0.400  -0.398  -0.398
 -0.395  -0.395  -0.391  -0.388  -0.382  -0.381  -0.379  -0.379
 -0.378  -0.377  -0.375  -0.369  -0.368  -0.367  -0.366  -0.363
 -0.363  -0.360  -0.357  -0.356  -0.352  -0.348  -0.344  -0.343
 -0.342  -0.341  -0.340  -0.338  -0.337  -0.336  -0.335  -0.334
 -0.329  -0.327  -0.325  -0.323  -0.319  -0.315  -0.315  -0.312
 -0.311  -0.310  -0.309  -0.308  -0.302  -0.301  -0.301  -0.295
 -0.291  -0.282  -0.282  -0.281  -0.280  -0.278  -0.276  -0.273
 -0.268  -0.267  -0.262  -0.251  -0.241  -0.217  -0.214
 -- Virtual --
 -0.101  -0.099  -0.084  -0.084  -0.054  -0.052  -0.047  -0.040
 -0.039  -0.029  -0.028  -0.017  -0.008   0.006   0.007   0.013
  0.016   0.018   0.019   0.021   0.023   0.024   0.028   0.041
  0.042   0.047   0.060   0.062   0.064   0.073   0.077   0.078
  0.083   0.088   0.090   0.091   0.091   0.094   0.097   0.099
  0.102   0.103   0.104   0.109   0.109   0.121   0.122   0.123
  0.125   0.127   0.129   0.129   0.132   0.138   0.144   0.145
  0.145   0.146   0.148   0.151   0.151   0.154   0.155   0.156
  0.159   0.159   0.162   0.162   0.163   0.164   0.164   0.164
  0.166   0.167   0.168   0.169   0.173   0.174   0.175   0.176
  0.178   0.179   0.179   0.181   0.182   0.183   0.184   0.186
  0.187   0.189   0.190   0.191   0.192   0.192   0.193   0.194
  0.195   0.197   0.198   0.198   0.200   0.201   0.202   0.202
  0.204   0.206   0.207   0.207   0.209   0.210   0.211   0.212
  0.213   0.213   0.213   0.214   0.215   0.217   0.218   0.219
  0.219   0.219   0.221   0.221   0.222   0.225   0.226   0.226
  0.227   0.227   0.228   0.230   0.231   0.232   0.233   0.233
  0.234   0.234   0.235   0.236   0.238   0.240   0.241   0.241
  0.242   0.242   0.243   0.243   0.244   0.245   0.246   0.247
  0.248   0.248   0.249   0.249   0.251   0.251   0.252   0.253
  0.253   0.254   0.254   0.257   0.258   0.258   0.258   0.259
  0.262   0.264   0.265   0.266   0.267   0.269   0.270   0.271
  0.272   0.274   0.275   0.275   0.276   0.277   0.278   0.280
  0.280   0.281   0.282   0.283   0.284   0.287   0.288   0.290
  0.292   0.292   0.294   0.295   0.296   0.298   0.298   0.301
  0.302   0.303   0.304   0.305   0.305   0.306   0.308   0.308
  0.309   0.310   0.311   0.312   0.313   0.315   0.316   0.317
  0.319   0.319   0.320   0.321   0.321   0.322   0.324   0.325
  0.326   0.327   0.328   0.329   0.330   0.331   0.332   0.332
  0.334   0.335   0.335   0.336   0.337   0.338   0.338   0.339
  0.341   0.342   0.342   0.343   0.344   0.344   0.345   0.346
  0.347   0.348   0.348   0.349   0.351   0.352   0.354   0.355
  0.356   0.357   0.358   0.359   0.360   0.361   0.361   0.363
  0.363   0.364   0.365   0.366   0.366   0.367   0.368   0.369
  0.369   0.370   0.372   0.372   0.373   0.373   0.376   0.377
  0.377   0.379   0.380   0.381   0.382   0.384   0.385   0.386
  0.386   0.387   0.388   0.389   0.389   0.392   0.394   0.394
  0.395   0.397   0.398   0.398   0.398   0.400   0.402   0.404
  0.404   0.404   0.405   0.407   0.408   0.409   0.410   0.411
  0.411   0.413   0.413   0.414   0.415   0.416   0.417   0.417
  0.419   0.420   0.421   0.422   0.422   0.423   0.424   0.424
  0.425   0.426   0.427   0.428   0.430   0.431   0.432   0.432
  0.432   0.433   0.435   0.436   0.436   0.438   0.438   0.439
  0.439   0.440   0.442   0.443   0.444   0.445   0.446   0.448
  0.448   0.448   0.449   0.450   0.452   0.452   0.453   0.454
  0.455   0.456   0.457   0.458   0.459   0.461   0.462   0.463
  0.464   0.465   0.466   0.467   0.468   0.469   0.470   0.470
  0.471   0.472   0.473   0.474   0.474   0.476   0.477   0.478
  0.479   0.480   0.481   0.482   0.482   0.483   0.484   0.484
  0.486   0.487   0.488   0.488   0.489   0.489   0.490   0.492
  0.493   0.494   0.495   0.496   0.496   0.498   0.498   0.500
  0.501   0.503   0.504   0.505   0.506   0.507   0.509   0.509
  0.512   0.512   0.514   0.515   0.515   0.517   0.517   0.518
  0.519   0.520   0.522   0.524   0.525   0.525   0.526   0.527
  0.529   0.529   0.531   0.532   0.533   0.534   0.535   0.535
  0.536   0.537   0.539   0.541   0.543   0.544   0.544   0.546
  0.547   0.548   0.550   0.551   0.553   0.553   0.554   0.555
  0.556   0.557   0.558   0.559   0.562   0.563   0.564   0.565
  0.565   0.568   0.569   0.570   0.571   0.573   0.574   0.575
  0.575   0.577   0.579   0.579   0.581   0.582   0.583   0.584
  0.586   0.587   0.587   0.588   0.590   0.592   0.593   0.594
  0.594   0.596   0.597   0.599   0.600   0.602   0.603   0.603
  0.604   0.607   0.607   0.609   0.609   0.610   0.611   0.612
  0.612   0.615   0.615   0.616   0.618   0.619   0.621   0.622
  0.622   0.625   0.626   0.627   0.627   0.629   0.631   0.632
  0.632   0.634   0.634   0.636   0.637   0.639   0.640   0.640
  0.641   0.644   0.646   0.646   0.648   0.649   0.651   0.651
  0.653   0.655   0.655   0.657   0.659   0.659   0.660   0.661
  0.663   0.666   0.666   0.668   0.669   0.672   0.672   0.673
  0.674   0.677   0.677   0.678   0.679   0.680   0.682   0.683
  0.684   0.686   0.686   0.688   0.689   0.690   0.691   0.693
  0.696   0.698   0.699   0.701   0.703   0.704   0.705   0.708
  0.709   0.711   0.713   0.715   0.718   0.718   0.721   0.722
  0.723   0.723   0.726   0.726   0.729   0.730   0.731   0.732
  0.733   0.734   0.736   0.736   0.739   0.739   0.740   0.741
  0.744   0.745   0.747   0.749   0.749   0.751   0.753   0.755
  0.756   0.757   0.759   0.761   0.763   0.766   0.766   0.770
  0.771   0.771   0.773   0.777   0.778   0.779   0.780   0.782
  0.783   0.784   0.788   0.789   0.792   0.795   0.796   0.798
  0.800   0.802   0.802   0.806   0.807   0.810   0.812   0.815
  0.818   0.820   0.823   0.823   0.829   0.831   0.833   0.834
  0.834   0.840   0.842   0.845   0.849   0.851   0.852   0.855
  0.856   0.861   0.864   0.869   0.871   0.874   0.874   0.878
  0.880   0.882   0.885   0.886   0.889   0.890   0.890   0.893
  0.899   0.903   0.906   0.910   0.911   0.914   0.917   0.921
  0.925   0.929   0.930   0.932   0.934   0.940   0.945   0.947
  0.948   0.955   0.956   0.962   0.967   0.967   0.972   0.974
  0.981   0.983   0.985   0.986   0.989   0.995   0.998   1.006
  1.008   1.010   1.014   1.020   1.024   1.031   1.034   1.038
  1.043   1.045   1.056   1.068   1.072   1.074   1.075   1.077
  1.079   1.085   1.091   1.093   1.095   1.096   1.100   1.103
  1.106   1.108   1.110   1.113   1.115   1.118   1.119   1.119
  1.120   1.125   1.127   1.129   1.132   1.135   1.138   1.141
  1.143   1.147   1.148   1.150   1.152   1.154   1.157   1.158
  1.159   1.160   1.163   1.166   1.168   1.169   1.174   1.177
  1.178   1.182   1.184   1.185   1.189   1.192   1.194   1.197
  1.200   1.204   1.210   1.211   1.212   1.218   1.220   1.227
  1.230   1.231   1.235   1.237   1.240   1.243   1.244   1.248
  1.250   1.256   1.258   1.263   1.263   1.269   1.270   1.273
  1.279   1.281   1.282   1.286   1.287   1.291   1.291   1.294
  1.296   1.296   1.296   1.302   1.303   1.306   1.307   1.311
  1.319   1.322   1.322   1.324   1.327   1.329   1.335   1.337
  1.338   1.341   1.347   1.350   1.351   1.354   1.364   1.365
  1.373   1.376   1.378   1.379   1.381   1.388   1.393   1.398
  1.405   1.405   1.408   1.410   1.414   1.418   1.436   1.437
  1.445   1.453   1.456   1.459   1.462   1.468   1.469   1.471
  1.474   1.477   1.482   1.486   1.487   1.492   1.495   1.496
  1.503   1.513   1.517   1.526   1.527   1.530   1.534   1.535
  1.538   1.541   1.549   1.566   1.567   1.570   1.575   1.583
  1.583   1.589   1.591   1.595   1.600   1.602   1.606   1.608
  1.613   1.614   1.619   1.627   1.631   1.634   1.634   1.636
  1.636   1.643   1.647   1.649   1.651   1.654   1.657   1.660
  1.661   1.662   1.664   1.666   1.675   1.678   1.683   1.693
  1.694   1.695   1.698   1.703   1.706   1.710   1.719   1.722
  1.729   1.735   1.740   1.745   1.747   1.755   1.770   1.770
  1.772   1.790   1.795   1.814   1.819   1.827   1.842   1.872
  1.878   1.896   1.946   2.064
 --------------------------------------------------------------
 
          Ground-State Mulliken Net Atomic Charges

     Atom                 Charge (a.u.)
  ----------------------------------------
      1 C                     0.091998
      2 C                    -0.145122
      3 C                    -0.039803
      4 C                     0.073647
      5 C                    -0.184307
      6 C                     0.042435
      7 C                    -0.044058
      8 C                    -0.082497
      9 C                    -0.127982
     10 C                    -0.025049
     11 C                    -0.085176
     12 C                    -0.035803
     13 C                    -0.007231
     14 C                     0.137189
     15 C                    -0.028395
     16 C                    -0.192332
     17 C                     0.183424
     18 C                    -0.153005
     19 C                     0.090098
     20 C                    -0.092848
     21 C                    -0.410009
     22 C                     0.151889
     23 C                     0.321060
     24 C                     0.024873
     25 C                    -0.095641
     26 C                     0.076515
     27 C                    -0.099348
     28 C                     0.027206
     29 C                     0.010532
     30 C                    -0.006768
     31 C                    -0.051211
     32 C                     0.147458
     33 C                    -0.139564
     34 C                     0.200873
     35 C                     0.107353
     36 C                    -0.083475
     37 C                     0.192591
     38 C                     0.025623
     39 C                    -0.052606
     40 C                     0.161840
     41 C                     0.151324
     42 C                     0.086995
     43 C                     0.047728
     44 C                    -0.175456
     45 C                    -0.000979
     46 C                    -0.065510
     47 C                     0.021610
     48 C                     0.007492
     49 C                    -0.160307
     50 C                    -0.171554
     51 C                    -0.153274
     52 C                     0.169256
     53 C                     0.107155
     54 C                     0.269709
     55 C                    -0.092787
[...]
    161 H                     0.258768
    162 C                    -0.410755
    163 H                     0.245126
    164 C                     0.399812
    165 C                    -0.957549
    166 H                     0.283177
    167 H                     0.267822
    168 H                     0.276429
    169 C                    -0.344732
    170 H                     0.231822
    171 C                    -0.279156
    172 H                     0.226021
    173 C                    -0.364522
    174 H                     0.235699
    175 C                     0.280157
    176 C                    -0.792467
    177 H                     0.236191
    178 H                     0.260230
    179 H                     0.266400
    180 C                    -0.340171
    181 H                     0.274891
    182 C                    -0.363157
    183 H                     0.265711
    184 C                     0.160271
    185 C                     0.194011
    186 C                    -0.939302
    187 H                     0.269228
    188 H                     0.259951
    189 H                     0.283297
    190 C                    -0.563989
    191 H                     0.254271
    192 H                     0.257484
    193 C                    -0.548719
    194 H                     0.272440
    195 H                     0.253907
    196 C                    -0.555719
    197 H                     0.251027
    198 H                     0.241257
    199 C                     0.222805
    200 C                    -0.886524
    201 H                     0.264693
    202 H                     0.239239
    203 H                     0.268410
    204 C                    -0.819962
    205 H                     0.245308
    206 H                     0.256213
    207 H                     0.239701
  ----------------------------------------
  Sum of atomic charges =     0.000000

         TDA Excited State 25:  Mulliken Net Atomic Charges

     Atom                 Charge (a.u.)
  ----------------------------------------
      1 C                     0.091871
      2 C                    -0.145972
      3 C                    -0.040036
      4 C                     0.073403
      5 C                    -0.184413
      6 C                     0.041600
      7 C                    -0.044393
      8 C                    -0.082559
      9 C                    -0.128235
     10 C                    -0.025557
     11 C                    -0.085284
     12 C                    -0.035881
     13 C                    -0.007442
     14 C                     0.137047
     15 C                    -0.028465
     16 C                    -0.192498
     17 C                     0.182907
     18 C                    -0.153637
     19 C                     0.089619
     20 C                    -0.093419
     21 C                    -0.409930
     22 C                     0.151078
     23 C                     0.319903
     24 C                     0.024691
     25 C                    -0.095834
     26 C                     0.075860
     27 C                    -0.099375
     28 C                     0.026932
     29 C                     0.010389
     30 C                    -0.006871
     31 C                    -0.051953
     32 C                     0.147231
     33 C                    -0.140246
     34 C                     0.200577
     35 C                     0.107499
     36 C                    -0.083433
     37 C                     0.191996
     38 C                     0.025154
     39 C                    -0.052866
     40 C                     0.161561
     41 C                     0.150861
     42 C                     0.086872
     43 C                     0.047497
     44 C                    -0.175332
     45 C                    -0.001330
     46 C                    -0.065761
     47 C                     0.021673
     48 C                     0.007509
     49 C                    -0.160371
     50 C                    -0.171678
     51 C                    -0.153317
     52 C                     0.168933
     53 C                     0.107118
     54 C                     0.269545
     55 C                    -0.092923
     56 C                    -0.017903
     57 C                    -0.081902
     58 C                     0.058022
     59 C                    -0.120949
     60 C                     0.059009
     61 C                    -0.008696
     62 N                     0.041872
     63 C                    -0.634037
     64 H                     0.305438
     65 H                     0.312777
     66 C                     0.344264
     67 C                    -0.457947
     68 H                     0.294747
     69 C                    -0.376783
     70 H                     0.270464
     71 C                     0.354075
     72 C                    -0.385200
     73 H                     0.298544
     74 C                    -0.433645
     75 H                     0.306317
     76 C                     0.003411
     77 C                     0.163545
     78 C                    -0.420296
     79 H                     0.318462
     80 C                    -0.439510
     81 H                     0.296922
     82 C                     0.341087
     83 N                    -0.350487
     84 H                     0.403153
     85 C                    -0.585488
     86 H                     0.267444
     87 C                     0.216395
     88 C                    -0.429905
     89 H                     0.296129
     90 C                    -0.367120
     91 H                     0.305680
     92 C                    -0.061118
     93 N                    -0.097794
     94 C                     0.054672
     95 C                     0.199635
     96 C                    -0.353251
     97 H                     0.312193
     98 C                    -0.440958
     99 H                     0.292776
    100 C                     0.422801
    101 N                    -0.418848
    102 H                     0.397425
    103 C                    -0.528952
    104 H                     0.273033
    105 C                     0.162074
    106 C                    -0.430639
    107 H                     0.276959
    108 C                    -0.406197
    109 H                     0.326537
    110 C                    -0.038100
    111 N                    -0.046146
    112 C                     0.450873
    113 C                    -0.378192
    114 H                     0.305050
    115 C                    -0.404075
    116 H                     0.262717
    117 C                     0.334528
    118 C                    -0.470058
    119 H                     0.277072
    120 C                    -0.386383
    121 H                     0.292698
    122 N                    -0.478665
    123 H                     0.319229
    124 C                    -0.007140
    125 O                    -0.180112
    126 C                     0.208601
    127 C                    -0.549235
    128 H                     0.308228
    129 C                     0.454024
    130 C                    -0.404390
    131 H                     0.253447
    132 C                    -0.258554
    133 H                     0.266616
    134 C                    -0.368332
    135 H                     0.245133
    136 C                    -0.376628
    137 H                     0.252638
    138 C                    -0.382217
    139 H                     0.239498
    140 C                     0.365211
    141 C                    -0.892874
    142 H                     0.265495
    143 H                     0.266858
    144 H                     0.273771
    145 C                    -0.423182
    146 H                     0.273271
    147 C                    -0.238348
    148 H                     0.276593
    149 C                    -0.403271
    150 H                     0.260184
    151 C                     0.241119
    152 C                    -0.850224
    153 H                     0.265174
    154 H                     0.257104
    155 H                     0.274702
    156 C                    -0.342380
    157 H                     0.257493
    158 C                    -0.243151
    159 H                     0.263755
    160 C                    -0.275150
    161 H                     0.258821
    162 C                    -0.391816
    163 H                     0.245185
    164 C                     0.402189
    165 C                    -0.955982
    166 H                     0.282855
    167 H                     0.267247
    168 H                     0.276243
    169 C                    -0.333842
    170 H                     0.231968
    171 C                    -0.278134
    172 H                     0.226043
    173 C                    -0.351324
    174 H                     0.235698
    175 C                     0.286949
    176 C                    -0.791881
    177 H                     0.236142
    178 H                     0.261334
    179 H                     0.267327
    180 C                    -0.336819
    181 H                     0.274855
    182 C                    -0.362692
    183 H                     0.265782
    184 C                     0.163979
    185 C                     0.198906
    186 C                    -0.938878
    187 H                     0.269602
    188 H                     0.260295
    189 H                     0.283322
    190 C                    -0.563648
    191 H                     0.254340
    192 H                     0.257936
    193 C                    -0.548580
    194 H                     0.272449
    195 H                     0.253915
    196 C                    -0.555537
    197 H                     0.251021
    198 H                     0.241406
    199 C                     0.223327
    200 C                    -0.886283
    201 H                     0.264692
    202 H                     0.239154
    203 H                     0.268344
    204 C                    -0.819925
    205 H                     0.245268
    206 H                     0.256223
    207 H                     0.239697
  ----------------------------------------
  Sum of atomic charges =     0.000000

 -----------------------------------------------------------------
                    Cartesian Multipole Moments
 -----------------------------------------------------------------
    Charge (ESU x 10^10)
                 0.0000
    Dipole Moment (Debye)
         X       5.1719      Y       0.3243      Z       0.9632
       Tot       5.2708
    Quadrupole Moments (Debye-Ang)
        XX    -205.3570     XY     318.3617     YY    -810.4716
        XZ     268.2363     YZ      69.7140     ZZ    -666.8667
    Octopole Moments (Debye-Ang^2)
       XXX  -57738.3910    XXY    -701.2412    XYY  -19403.9954
       YYY -113946.6496    XXZ  -11756.7508    XYZ   16384.9594
       YYZ  -37495.4224    XZZ  -21004.4908    YZZ  -28514.9467
       ZZZ -106616.2477
    Hexadecapole Moments (Debye-Ang^3)
      XXXX ************   XXXY ************   XXYY ************
      XYYY ************   YYYY ************   XXXZ ************
      XXYZ -112588.2179   XYYZ -925357.0666   YYYZ ************
      XXZZ ************   XYZZ -802372.8578   YYZZ ************
      XZZZ ************   YZZZ ************   ZZZZ ************
 -----------------------------------------------------------------
Archival summary:
1\1\argon22\SP\ProcedureUnspecified\BasisUnspecified\1668\xs13\FriJun2103:02:062024FriJun2103:02:062024\0\\#,ProcedureUnspecified,BasisUnspecified,\\0,1\C\C,1,1.3657\C,1,1.38681,2,117.418\C,2,1.39168,1,111.799,3,146.652,0\C,4,1.39014,2,119.199,1,-141.618,0\C,5,1.372,4,121.719,2,121.972,0\C,6,1.36843,5,111.012,4,-143.382,0\C,7,1.37583,6,107.282,5,5.56789,0\C,8,1.37416,7,120.886,6,145.386,0\C,9,1.37854,8,120.208,7,-136.882,0\C,10,1.36682,9,108.684,8,139.172,0\C,11,1.36501,10,111.2,9,2.12116,0\C,12,1.36806,11,121.736,10,-142.93,0\C,10,1.37884,9,117.097,8,-5.56215,0\C,14,1.35981,10,119.457,9,140.154,0\C,15,1.34996,14,111.929,10,-143.031,0\C,15,1.35429,14,122.626,10,-0.230002,0\C,16,1.36748,15,105.232,14,2.89004,0\C,14,1.3797,10,123.176,9,0.975935,0\C,19,1.38084,14,119.394,10,2.67464,0\C,7,1.38199,6,122.879,5,153.28,0\C,21,1.36914,7,116.586,6,-5.58861,0\C,22,1.37188,21,109.025,7,-138.438,0\C,23,1.37004,22,108.003,21,1.95873,0\C,23,1.39355,22,120.915,21,144.462,0\C,25,1.37796,23,121.128,22,-132.963,0\C,26,1.37711,25,112.4,23,140.513,0\C,27,1.3506,26,104.845,25,-2.11066,0\C,27,1.37022,26,118.309,25,-142.312,0\C,29,1.36239,27,119.671,26,139.432,0\C,29,1.36685,27,123.097,26,-4.73062,0\C,31,1.33198,29,120.39,27,0.500491,0\C,31,1.38444,29,107.098,27,147.074,0\C,33,1.37369,31,109.044,29,1.75927,0\C,30,1.39061,29,120.771,27,-4.77661,0\C,35,1.33827,30,121.558,29,-134.749,0\C,36,1.34563,35,120.188,30,-4.66393,0\C,35,1.37089,30,118.966,29,-0.213469,0\C,37,1.38491,36,119.854,35,1.54589,0\C,38,1.38904,35,111.157,30,-142.697,0\C,40,1.34265,38,107.121,35,1.07173,0\C,40,1.37918,38,121.376,35,146.292,0\C,25,1.39157,23,119.285,22,0.839122,0\C,33,1.39208,31,119.374,29,-139.942,0\C,44,1.35988,33,120.69,31,2.68633,0\C,45,1.36442,44,113.711,33,144.428,0\C,21,1.39567,7,118.325,6,-137.321,0\C,39,1.39686,37,106.467,36,140.805,0\C,48,1.36802,39,109.593,37,-0.452378,0\C,44,1.39714,33,121.329,31,137.528,0\C,47,1.40073,21,122.827,7,-4.87685,0\C,6,1.40195,5,125.036,4,13.1141,0\C,52,1.32652,6,116.964,5,-142.271,0\C,53,1.39569,52,109.686,6,134.606,0\C,24,1.40199,23,122.579,22,141.109,0\C,55,1.36673,24,116.788,23,-3.44682,0\C,45,1.41026,44,118.901,33,-10.6826,0\C,41,1.41318,40,125.574,38,150.523,0\C,42,1.5379,40,122.274,38,-152.257,0\C,4,1.544,2,109.615,1,4.12107,0\C,60,1.55093,4,109.5,2,115.298,0\N,61,1.29045,60,113.776,4,125.199,0\C,62,1.46941,61,113.037,60,0.19868,0\H,63,1.093,62,113.934,61,111.426,0\H,63,1.09301,62,108.417,61,-115.954,0\C,61,1.5326,60,126.388,4,-80.9806,0\C,66,1.36724,61,119.847,60,37.8684,0\H,67,1.087,66,116.905,61,12.0867,0\C,67,1.41401,66,124.491,61,178.36,0\H,69,1.087,67,118.006,66,-178.224,0\C,66,1.41867,61,120.94,60,-142.029,0\H,71,1.087,66,113.371,61,5.81632,0\C,69,1.42721,67,116.574,66,-0.607327,0\C,73,1.40852,69,120.595,67,2.49674,0\H,74,1.087,73,123.278,69,168.52,0\C,73,1.51117,69,116.682,67,-178.391,0\C,76,1.39716,73,114.19,69,-169.511,0\N,77,1.31466,76,123.581,73,122.139,0\C,78,1.35695,77,111.288,76,165.827,0\C,77,1.35868,76,123.723,73,-73.2052,0\H,80,1.085,77,131.464,76,5.42985,0\C,80,1.37197,77,103.903,76,-168.933,0\H,82,1.085,80,130.154,77,175.51,0\C,79,1.44577,78,126.177,77,-175.085,0\H,84,1.089,79,117.672,78,-168.317,0\C,84,1.30356,79,128.187,78,5.03242,0\N,86,1.34227,84,127.682,79,-0.221241,0\H,87,1.011,86,118.534,84,-1.76552,0\C,87,1.39505,86,117.478,84,-171.301,0\C,89,1.39423,87,123.878,86,-173.151,0\C,86,1.41241,84,131.526,79,-177.697,0\H,91,1.08501,86,124.815,84,-4.31109,0\C,91,1.38067,86,112.148,84,170.01,0\H,93,1.085,91,122.824,86,-173.122,0\C,90,1.44522,89,121.357,87,34.4589,0\N,95,1.34194,90,123.942,89,-39.0118,0\C,96,1.36936,95,104.139,90,179.001,0\C,97,1.36903,96,123.362,95,-179.602,0\H,98,1.089,97,115.333,96,170.802,0\C,97,1.41047,96,113.882,95,-8.4564,0\H,100,1.08499,97,126.616,96,-176.238,0\C,100,1.33622,97,104.634,96,1.50145,0\H,102,1.085,100,124.17,97,169.794,0\C,98,1.41967,97,128.815,96,-12.232,0\N,104,1.344,98,123.068,97,7.59506,0\H,105,1.011,104,119.425,98,-14.1215,0\C,105,1.32584,104,112.404,98,170.374,0\C,107,1.39579,105,106.695,104,1.62365,0\H,108,1.085,107,129.179,105,175.154,0\C,104,1.39678,98,127.775,97,171.999,0\H,110,1.085,104,127.972,98,5.31961,0\C,90,1.48906,89,124.392,87,-135.764,0\C,112,1.43504,90,120.549,89,-13.9064,0\H,113,1.087,112,114.417,90,8.71746,0\C,113,1.41101,112,124.6,90,-175.688,0\H,115,1.08701,113,125.217,112,178.601,0\C,115,1.38594,113,116.846,112,2.0898,0\C,117,1.38522,115,121.805,113,-4.2588,0\H,118,1.087,117,114.133,115,179.873,0\C,118,1.40877,117,121.865,115,2.97209,0\H,120,1.087,118,114.364,117,-177.501,0\N,117,1.42629,115,120.976,113,176.111,0\H,122,1.009,117,114.456,115,122.319,0\C,122,1.37538,117,126.576,115,-50.2948,0\O,124,1.24026,122,116.502,117,1.44807,0\C,124,1.50182,122,119.751,117,-176.689,0\C,126,1.35469,124,120.069,122,-148.859,0\H,127,1.087,126,112.318,124,2.27927,0\C,127,1.36719,126,123.87,124,178.145,0\C,129,1.43066,127,115.532,126,10.4126,0\H,130,1.087,129,116.124,127,174.293,0\C,130,1.35169,129,123.573,127,-14.2929,0\H,132,1.087,130,122.216,129,-178.752,0\C,132,1.38189,130,117.298,129,13.332,0\H,134,1.087,132,120.486,130,-174.958,0\C,129,1.45798,127,123.423,126,-171.011,0\H,136,1.089,129,106.486,127,0.815342,0\C,136,1.36242,129,130.658,127,-179.698,0\H,138,1.089,136,114.374,129,1.52178,0\C,138,1.4522,136,129.647,129,-172.917,0\C,140,1.34672,138,125.572,136,176.046,0\H,141,1.089,140,115.175,138,11.5246,0\C,141,1.44905,140,124.326,138,-170.379,0\H,143,1.089,141,121.186,140,-6.69389,0\C,143,1.32814,141,123.883,140,-175.839,0\H,145,1.089,143,116.177,141,-7.1293,0\C,145,1.41563,143,136.085,141,173.202,0\C,147,1.35675,145,121.926,143,-142.821,0\H,148,1.08901,147,114.075,145,18.3973,0\C,148,1.47846,147,124.173,145,-178.713,0\H,150,1.089,148,122.291,147,-12.331,0\C,150,1.37525,148,120.028,147,171.864,0\H,152,1.089,150,121.216,148,-1.55204,0\C,140,1.49614,138,113.191,136,10.7404,0\H,154,1.092,140,106.109,138,-110.949,0\H,154,1.092,140,112.984,138,19.0171,0\H,154,1.092,140,111.516,138,129.321,0\C,147,1.51268,145,117.404,143,48.4524,0\H,158,1.09199,147,106.101,145,0.440483,0\H,158,1.092,147,108.73,145,110.198,0\H,158,1.092,147,108.217,145,-122.265,0\C,152,1.51398,150,129.328,148,-175.699,0\H,162,1.089,152,109.87,150,-7.50399,0\C,162,1.3432,152,130.134,150,-174.396,0\C,164,1.4699,162,120.901,152,171.839,0\H,165,1.089,164,117.374,162,-0.389564,0\C,165,1.35854,164,130.016,162,160.192,0\H,167,1.08899,165,115.36,164,-6.74147,0\C,167,1.50287,165,126.909,164,-168.86,0\H,169,1.089,167,115.014,165,-5.95118,0\C,169,1.34799,167,127.985,165,173.029,0\C,171,1.46202,169,130.621,167,1.30737,0\H,172,1.09199,171,111.301,169,123.042,0\H,172,1.092,171,97.3676,169,-116.637,0\H,172,1.092,171,103.474,169,-2.90158,0\C,171,1.48376,169,119.746,167,177.088,0\H,176,1.089,171,116.589,169,-165.201,0\C,176,1.33867,171,125.512,169,18.6638,0\H,178,1.089,176,121.339,171,0.738339,0\C,178,1.49842,176,122.166,171,-179.205,0\C,180,1.32209,178,127.376,176,-50.6306,0\C,181,1.46583,180,125.013,178,179.038,0\H,182,1.092,181,115.725,180,140.297,0\H,182,1.092,181,98.0565,180,-100.472,0\C,182,1.4977,181,113.784,180,18.9438,0\H,185,1.092,182,115.724,181,83.1106,0\H,185,1.092,182,111.886,181,-167.239,0\C,185,1.51795,182,110.532,181,-46.1122,0\H,188,1.09199,185,110.596,182,-176.84,0\H,188,1.09201,185,110.578,182,-59.9663,0\C,188,1.51208,185,110.149,182,61.7071,0\C,191,1.48836,188,107.929,185,-168.646,0\H,192,1.092,191,114.909,188,61.1568,0\H,192,1.092,191,117.692,188,-174.705,0\H,192,1.092,191,108.549,188,-57.1348,0\C,164,1.54817,162,119.506,152,3.80732,0\H,196,1.092,164,108.499,162,49.4427,0\H,196,1.092,164,116.395,162,-178.187,0\H,196,1.092,164,115.518,162,-59.1255,0\C,181,1.55427,180,124.751,178,-3.94448,0\H,200,1.092,181,111.038,180,-11.4617,0\H,200,1.092,181,116.31,180,-128.272,0\H,200,1.092,181,113.334,180,114.863,0\C,191,1.56066,188,107.488,185,77.8804,0\H,204,1.09199,191,111.713,188,51.6863,0\H,204,1.092,191,111.92,188,171.993,0\H,204,1.092,191,104.546,188,-74.355,0\\\@

 Total job time:  12166.00s(wall), 169622.37s(cpu) 
 Fri Jun 21 03:02:06 2024

        *************************************************************
        *                                                           *
        *  Thank you very much for using Q-Chem.  Have a nice day.  *
        *                                                           *
        *************************************************************


0 sent ACK to 0 
now end server 0 ... 
cleanup process ... done
remove work dirs /tmp/qchem217032.0 -- /tmp/qchem217032.0
rm -rf /tmp/qchem217032.0
rm -rf /tmp/qchem217032
